
Running Job 1 of 1 LycopTPSS.inp
qchem LycopTPSS.inp_12600.0 /tmpu/qchem-scratch/qchem12600/ 0
/tmpu/appuserlic/qchem5.4/shared-memory/exe/qcprog.exe_s LycopTPSS.inp_12600.0 /tmpu/qchem-scratch/qchem12600/
                  Welcome to Q-Chem
     A Quantum Leap Into The Future Of Chemistry


 Q-Chem 5.4, Q-Chem, Inc., Pleasanton, CA (2021)

 E. Epifanovsky,  A. T. B. Gilbert,  Xintian Feng,  Joonho Lee,  Yuezhi Mao,  
 N. Mardirossian,  P. Pokhilko,  A. White,  M. Wormit,  M. P. Coons,  
 A. L. Dempwolff,  Zhengting Gan,  D. Hait,  P. R. Horn,  L. D. Jacobson,  
 I. Kaliman,  J. Kussmann,  A. W. Lange,  Ka Un Lao,  D. S. Levine,  Jie Liu,  
 S. C. McKenzie,  A. F. Morrison,  K. Nanda,  F. Plasser,  D. R. Rehn,  
 M. L. Vidal,  Zhi-Qiang You,  Ying Zhu,  B. Alam,  B. Albrecht,  
 A. Aldossary,  E. Alguire,  J. H. Andersen,  D. Barton,  K. Begam,  A. Behn,  
 Y. A. Bernard,  E. J. Berquist,  H. Burton,  A. Carreras,  K. Carter-Fenk,  
 R. Chakraborty,  A. D. Chien,  K. D. Closser,  V. Cofer-Shabica,  
 S. Dasgupta,  Jia Deng,  M. de Wergifosse,  M. Diedenhofen,  Hainam Do,  
 S. Ehlert,  Po-Tung Fang,  S. Fatehi,  Qingguo Feng,  T. Friedhoff,  
 J. Gayvert,  Qinghui Ge,  G. Gidofalvi,  M. Goldey,  J. Gomes,  
 C. Gonzalez-Espinoza,  S. Gulania,  A. Gunina,  M. W. D. Hanson-Heine,  
 P. H. P. Harbach,  A. W. Hauser,  M. F. Herbst,  M. Hernandez Vera,  
 M. Hodecker,  Z. C. Holden,  S. Houck,  Xunkun Huang,  Kerwin Hui,  
 B. C. Huynh,  M. Ivanov,  Hyunjun Ji,  Hanjie Jiang,  B. Kaduk,  S. Kaehler,  
 K. Khistyaev,  Jaehoon Kim,  P. Klunzinger,  Z. Koczor-Benda,  
 Joong Hoon Koh,  D. Kosenkov,  L. Koulias,  T. Kowalczyk,  C. M. Krauter,  
 K. Kue,  A. Kunitsa,  T. Kus,  A. Landau,  K. V. Lawler,  D. Lefrancois,  
 S. Lehtola,  Rain Li,  Yi-Pei Li,  Jiashu Liang,  M. Liebenthal,  
 Hung-Hsuan Lin,  You-Sheng Lin,  Fenglai Liu,  Kuan-Yu Liu,  
 M. Loipersberger,  A. Luenser,  A. Manjanath,  P. Manohar,  E. Mansoor,  
 S. F. Manzer,  Shan-Ping Mao,  A. V. Marenich,  T. Markovich,  S. Mason,  
 S. A. Maurer,  P. F. McLaughlin,  M. F. S. J. Menger,  J.-M. Mewes,  
 S. A. Mewes,  P. Morgante,  J. W. Mullinax,  K. J. Oosterbaan,  G. Paran,  
 Alexander C. Paul,  Suranjan K. Paul,  F. Pavosevic,  Zheng Pei,  S. Prager,  
 E. I. Proynov,  E. Ramos,  B. Rana,  A. E. Rask,  A. Rettig,  R. M. Richard,  
 F. Rob,  E. Rossomme,  T. Scheele,  M. Scheurer,  M. Schneider,  
 N. Sergueev,  S. M. Sharada,  W. Skomorowski,  D. W. Small,  C. J. Stein,  
 Yu-Chuan Su,  E. J. Sundstrom,  Zhen Tao,  J. Thirman,  T. Tsuchimochi,  
 N. M. Tubman,  S. P. Veccham,  O. Vydrov,  J. Wenzel,  J. Witte,  A. Yamada,  
 Kun Yao,  S. Yeganeh,  S. R. Yost,  A. Zech,  Igor Ying Zhang,  Xing Zhang,  
 Yu Zhang,  D. Zuev,  A. Aspuru-Guzik,  A. T. Bell,  N. A. Besley,  
 K. B. Bravaya,  B. R. Brooks,  D. Casanova,  Jeng-Da Chai,  S. Coriani,  
 C. J. Cramer,  A. E. DePrince, III,  R. A. DiStasio Jr.,  A. Dreuw,  
 B. D. Dunietz,  T. R. Furlani,  W. A. Goddard III,  S. Grimme,  
 S. Hammes-Schiffer,  T. Head-Gordon,  W. J. Hehre,  Chao-Ping Hsu,  
 T.-C. Jagau,  Yousung Jung,  A. Klamt,  Jing Kong,  D. S. Lambrecht,  
 WanZhen Liang,  N. J. Mayhall,  C. W. McCurdy,  J. B. Neaton,  
 C. Ochsenfeld,  J. A. Parkhill,  R. Peverati,  V. A. Rassolov,  Yihan Shao,  
 L. V. Slipchenko,  T. Stauch,  R. P. Steele,  J. E. Subotnik,  
 A. J. W. Thom,  A. Tkatchenko,  D. G. Truhlar,  T. Van Voorhis,  
 T. A. Wesolowski,  K. B. Whaley,  H. L. Woodcock III,  P. M. Zimmerman,  
 S. Faraji,  P. M. W. Gill,  M. Head-Gordon,  J. M. Herbert,  A. I. Krylov

 Additional authors for Version 5.4.1: 
 S. Kotaru,  Shaozhi Li,  Xiangyuan Li,  F. Matz,  A. Molle,  Haisheng Ren,  
 Yingli Su,  Hung-Yi Tsai,  C. Utku,  Fang Wang

 Contributors to earlier versions of Q-Chem not listed above: 
 R. D. Adamson,  B. Austin,  R. Baer,  J. Baker,  G. J. O. Beran,  
 K. Brandhorst,  S. T. Brown,  E. F. C. Byrd,  A. K. Chakraborty,  
 G. K. L. Chan,  Chun-Min Chang,  Yunqing Chen,  C.-L. Cheng,  
 Siu Hung Chien,  D. M. Chipman,  D. L. Crittenden,  H. Dachsel,  
 R. J. Doerksen,  A. D. Dutoi,  R. G. Edgar,  J. Fosso-Tande,  
 L. Fusti-Molnar,  D. Ghosh,  A. Ghysels,  A. Golubeva-Zadorozhnaya,  
 J. Gonthier,  M. S. Gordon,  S. R. Gwaltney,  G. Hawkins,  J. E. Herr,  
 A. Heyden,  S. Hirata,  E. G. Hohenstein,  G. Kedziora,  F. J. Keil,  
 C. Kelley,  Jihan Kim,  R. A. King,  R. Z. Khaliullin,  P. P. Korambath,  
 W. Kurlancheek,  A. Laurent,  A. M. Lee,  M. S. Lee,  S. V. Levchenko,  
 Ching Yeh Lin,  D. Liotard,  E. Livshits,  R. C. Lochan,  I. Lotan,  
 L. A. Martinez-Martinez,  P. E. Maslen,  N. Nair,  D. P. O'Neill,  
 D. Neuhauser,  E. Neuscamman,  C. M. Oana,  R. Olivares-Amaya,  R. Olson,  
 T. M. Perrine,  B. Peters,  P. A. Pieniazek,  A. Prociuk,  Y. M. Rhee,  
 J. Ritchie,  M. A. Rohrdanz,  E. Rosta,  N. J. Russ,  H. F. Schaefer III,  
 M. W. Schmidt,  N. E. Schultz,  S. Sharma,  N. Shenvi,  C. D. Sherrill,  
 A. C. Simmonett,  A. Sodt,  T. Stein,  D. Stuck,  K. S. Thanthiriwatte,  
 V. Vanovschi,  L. Vogt,  Tao Wang,  A. Warshel,  M. A. Watson,  
 C. F. Williams,  Q. Wu,  X. Xu,  Jun Yang,  W. Zhang,  Yan Zhao

 Please cite Q-Chem as follows:
 Y. Shao et al., Mol. Phys. 113, 184-215 (2015)
 DOI: 10.1080/00268976.2014.952696

 Q-Chem 5.4.1 for Intel X86 EM64T Linux

 Parts of Q-Chem use Armadillo 9.800.1 (Horizon Scraper).
 http://arma.sourceforge.net/

 Q-Chem begins on Tue Jul 12 07:06:10 2022  

 Host: 
0

     Scratch files written to /tmpu/qchem-scratch/qchem12600//
 Aug1521 |scratch|qcdevops|jenkins|workspace|build_RNUM 6368   
 Processing $rem in /tmpu/appuserlic/qchem5.4/shared-memory/config/preferences:
 Processing $rem in /home/joaqbf_g/joaqbf/.qchemrc:
 Symmetry turned off for PCM/SM12/SMD calculation

 Checking the input file for inconsistencies... 	...done.

--------------------------------------------------------------
User input:
--------------------------------------------------------------
$molecule
0 1
C       -13.5946311143    3.0910607070   -0.5782273372
C        13.5726781881   -3.0339923386    0.1158954866
C       -14.3677354555    3.3662584172    0.7251649509
C        14.3389883389   -3.2800237476    1.4288941497
C       -12.2908826453    3.8335537234   -0.6815599148
C        12.2717911407   -3.7823835004    0.0182623661
C       -15.5909283717    2.5093303486    0.8403752752
C        15.5578011677   -2.4154272890    1.5344854064
C       -16.8804157777    2.8914813286    0.8555685107
C        16.8491103041   -2.7913329848    1.5508937511
C       -12.3842032862    5.3274455563   -0.7398061508
C        12.3681729671   -5.2772318645    0.0084621489
C       -11.1215500419    3.1446616642   -0.6972357193
C        11.1015500578   -3.0971727513   -0.0386641193
C       -17.9801792723    1.8746779712    0.9636960345
C       -17.3526926184    4.3128724823    0.7730294018
C        17.9445812200   -1.7686817612    1.6471928277
C        17.3274699291   -4.2113448150    1.4807342576
C        -9.7873377780    3.6919824275   -0.7577927031
C         9.7700095175   -3.6503124955   -0.1060137723
C        -8.6703210769    2.9156730142   -0.7487059336
C         8.6512736781   -2.8783148076   -0.1600607847
C        -7.3030798506    3.3885643319   -0.7847306289
C         7.2869207919   -3.3578751985   -0.2144146105
C        -7.0562637306    4.8659039347   -0.8462197077
C         7.0457998897   -4.8373494480   -0.2068804140
C        -6.2997314255    2.4540333518   -0.7526485116
C         6.2810238265   -2.4270487723   -0.2668314321
C        -4.8871811899    2.6881651991   -0.7573934539
C         4.8702368038   -2.6664549061   -0.3170581833
C        -3.9721307062    1.6752375919   -0.7117591387
C         3.9532059598   -1.6558397104   -0.3731089363
C        -2.5387885730    1.8284902587   -0.6959813322
C         2.5209688419   -1.8126704716   -0.4203341838
C        -1.7709193523    0.6897149578   -0.6363189052
C         1.7514142755   -0.6750648472   -0.4800078527
C        -1.9614962899    3.2120786415   -0.7394921382
C         1.9466246781   -3.1980151478   -0.4022102370
C        -0.3470671568    0.6014224111   -0.5943798127
C         0.3277416791   -0.5883288685   -0.5312251529
H       -13.4078499574    2.0079488606   -0.6634304894
H       -14.2448696335    3.3727844595   -1.4276478921
H        13.3832680282   -1.9534677712    0.0070401360
H        14.2291667585   -3.3309302845   -0.7236082841
H       -13.6939466700    3.1481867165    1.5743575235
H       -14.6218284396    4.4345478875    0.7931876892
H        13.6596444064   -3.0487953522    2.2700762114
H        14.5979103190   -4.3454921286    1.5192224465
H       -15.3919266965    1.4305119229    0.9018933140
H        15.3536687367   -1.3370107259    1.5855310809
H       -13.1684366166    5.6363775107   -1.4514881206
H       -12.6753357528    5.7459481531    0.2396305286
H       -11.4443675849    5.8107012888   -1.0383506263
H        13.1658824975   -5.6069764474   -0.6784760992
H        12.6404042451   -5.6651589008    1.0057210619
H        11.4347667106   -5.7707274158   -0.2934724623
H       -11.1831707114    2.0500893976   -0.6494419790
H        11.1601032334   -2.0014778869   -0.0263952517
H       -18.6069446389    2.0605665070    1.8540200668
H       -17.5890637629    0.8481621886    1.0267990181
H       -18.6587130093    1.9335968418    0.0942894619
H       -17.9315894688    4.5824820571    1.6739953436
H       -18.0406184735    4.4406256107   -0.0810289069
H       -16.5384856066    5.0417094205    0.6643031502
H        18.5748154521   -1.9447041009    2.5370245944
H        17.5491374575   -0.7434059890    1.7030241168
H        18.6206032902   -1.8318359370    0.7761275161
H        17.9083765389   -4.4704431869    2.3834845696
H        18.0151036943   -4.3437354270    0.6271522519
H        16.5161958385   -4.9444710232    1.3791154912
H        -9.6785561597    4.7795792885   -0.8005907631
H         9.6645609312   -4.7390499830   -0.1045482280
H        -8.7980573757    1.8270170477   -0.6997815295
H         8.7748643048   -1.7881036916   -0.1580273730
H        -7.4954794674    5.3746888955    0.0279726156
H        -7.5326739199    5.3064244658   -1.7376982073
H        -5.9895210786    5.1199332734   -0.8788548126
H         7.4665257226   -5.2992929737    0.7017494448
H         7.5438520505   -5.3208134921   -1.0636292199
H         5.9808278415   -5.0970986290   -0.2503982721
H        -6.6083965335    1.4019213738   -0.7105571177
H         6.5858178438   -1.3729537713   -0.2695139378
H        -4.5312614597    3.7217206291   -0.7919168875
H         4.5172685259   -3.7015900910   -0.3075588311
H        -4.3466873629    0.6446148057   -0.6771696926
H         4.3252031140   -0.6237660759   -0.3840325231
H        -2.3089157809   -0.2660782476   -0.6125956245
H         2.2877727532    0.2819098598   -0.4889696230
H        -2.3068986849    3.8094382314    0.1204712488
H        -2.2925783633    3.7462458519   -1.6452681809
H        -0.8647614176    3.2171195972   -0.7311238823
H         2.2613846697   -3.7413558566    0.5039217648
H         2.3102534293   -3.7851017799   -1.2617430782
H         0.8503045618   -3.2054696590   -0.4325936937
H         0.2425566306    1.5245835855   -0.6085451711
H        -0.2614474917   -1.5118112432   -0.5186847562
$end

$comment
Lyc ES
$end

$rem
JOBTYPE SP
BASIS cc-pVDZ
METHOD TPSS
CIS_N_ROOTS 15
cis_singlets true
cis_triplets false
state_analysis true
molden_format true
nto_pairs 2
SOLVENT_METHOD smd
MEM_TOTAL 64000
THREADS 32
$end

$smx
solvent methanol
$end

--------------------------------------------------------------
 ----------------------------------------------------------------
             Standard Nuclear Orientation (Angstroms)
    I     Atom           X                Y                Z
 ----------------------------------------------------------------
    1      C     -13.5946311143     3.0910607070    -0.5782273372
    2      C      13.5726781881    -3.0339923386     0.1158954866
    3      C     -14.3677354555     3.3662584172     0.7251649509
    4      C      14.3389883389    -3.2800237476     1.4288941497
    5      C     -12.2908826453     3.8335537234    -0.6815599148
    6      C      12.2717911407    -3.7823835004     0.0182623661
    7      C     -15.5909283717     2.5093303486     0.8403752752
    8      C      15.5578011677    -2.4154272890     1.5344854064
    9      C     -16.8804157777     2.8914813286     0.8555685107
   10      C      16.8491103041    -2.7913329848     1.5508937511
   11      C     -12.3842032862     5.3274455563    -0.7398061508
   12      C      12.3681729671    -5.2772318645     0.0084621489
   13      C     -11.1215500419     3.1446616642    -0.6972357193
   14      C      11.1015500578    -3.0971727513    -0.0386641193
   15      C     -17.9801792723     1.8746779712     0.9636960345
   16      C     -17.3526926184     4.3128724823     0.7730294018
   17      C      17.9445812200    -1.7686817612     1.6471928277
   18      C      17.3274699291    -4.2113448150     1.4807342576
   19      C      -9.7873377780     3.6919824275    -0.7577927031
   20      C       9.7700095175    -3.6503124955    -0.1060137723
   21      C      -8.6703210769     2.9156730142    -0.7487059336
   22      C       8.6512736781    -2.8783148076    -0.1600607847
   23      C      -7.3030798506     3.3885643319    -0.7847306289
   24      C       7.2869207919    -3.3578751985    -0.2144146105
   25      C      -7.0562637306     4.8659039347    -0.8462197077
   26      C       7.0457998897    -4.8373494480    -0.2068804140
   27      C      -6.2997314255     2.4540333518    -0.7526485116
   28      C       6.2810238265    -2.4270487723    -0.2668314321
   29      C      -4.8871811899     2.6881651991    -0.7573934539
   30      C       4.8702368038    -2.6664549061    -0.3170581833
   31      C      -3.9721307062     1.6752375919    -0.7117591387
   32      C       3.9532059598    -1.6558397104    -0.3731089363
   33      C      -2.5387885730     1.8284902587    -0.6959813322
   34      C       2.5209688419    -1.8126704716    -0.4203341838
   35      C      -1.7709193523     0.6897149578    -0.6363189052
   36      C       1.7514142755    -0.6750648472    -0.4800078527
   37      C      -1.9614962899     3.2120786415    -0.7394921382
   38      C       1.9466246781    -3.1980151478    -0.4022102370
   39      C      -0.3470671568     0.6014224111    -0.5943798127
   40      C       0.3277416791    -0.5883288685    -0.5312251529
   41      H     -13.4078499574     2.0079488606    -0.6634304894
   42      H     -14.2448696335     3.3727844595    -1.4276478921
   43      H      13.3832680282    -1.9534677712     0.0070401360
   44      H      14.2291667585    -3.3309302845    -0.7236082841
   45      H     -13.6939466700     3.1481867165     1.5743575235
   46      H     -14.6218284396     4.4345478875     0.7931876892
   47      H      13.6596444064    -3.0487953522     2.2700762114
   48      H      14.5979103190    -4.3454921286     1.5192224465
   49      H     -15.3919266965     1.4305119229     0.9018933140
   50      H      15.3536687367    -1.3370107259     1.5855310809
   51      H     -13.1684366166     5.6363775107    -1.4514881206
   52      H     -12.6753357528     5.7459481531     0.2396305286
   53      H     -11.4443675849     5.8107012888    -1.0383506263
   54      H      13.1658824975    -5.6069764474    -0.6784760992
   55      H      12.6404042451    -5.6651589008     1.0057210619
   56      H      11.4347667106    -5.7707274158    -0.2934724623
   57      H     -11.1831707114     2.0500893976    -0.6494419790
   58      H      11.1601032334    -2.0014778869    -0.0263952517
   59      H     -18.6069446389     2.0605665070     1.8540200668
   60      H     -17.5890637629     0.8481621886     1.0267990181
   61      H     -18.6587130093     1.9335968418     0.0942894619
   62      H     -17.9315894688     4.5824820571     1.6739953436
   63      H     -18.0406184735     4.4406256107    -0.0810289069
   64      H     -16.5384856066     5.0417094205     0.6643031502
   65      H      18.5748154521    -1.9447041009     2.5370245944
   66      H      17.5491374575    -0.7434059890     1.7030241168
   67      H      18.6206032902    -1.8318359370     0.7761275161
   68      H      17.9083765389    -4.4704431869     2.3834845696
   69      H      18.0151036943    -4.3437354270     0.6271522519
   70      H      16.5161958385    -4.9444710232     1.3791154912
   71      H      -9.6785561597     4.7795792885    -0.8005907631
   72      H       9.6645609312    -4.7390499830    -0.1045482280
   73      H      -8.7980573757     1.8270170477    -0.6997815295
   74      H       8.7748643048    -1.7881036916    -0.1580273730
   75      H      -7.4954794674     5.3746888955     0.0279726156
   76      H      -7.5326739199     5.3064244658    -1.7376982073
   77      H      -5.9895210786     5.1199332734    -0.8788548126
   78      H       7.4665257226    -5.2992929737     0.7017494448
   79      H       7.5438520505    -5.3208134921    -1.0636292199
   80      H       5.9808278415    -5.0970986290    -0.2503982721
   81      H      -6.6083965335     1.4019213738    -0.7105571177
   82      H       6.5858178438    -1.3729537713    -0.2695139378
   83      H      -4.5312614597     3.7217206291    -0.7919168875
   84      H       4.5172685259    -3.7015900910    -0.3075588311
   85      H      -4.3466873629     0.6446148057    -0.6771696926
   86      H       4.3252031140    -0.6237660759    -0.3840325231
   87      H      -2.3089157809    -0.2660782476    -0.6125956245
   88      H       2.2877727532     0.2819098598    -0.4889696230
   89      H      -2.3068986849     3.8094382314     0.1204712488
   90      H      -2.2925783633     3.7462458519    -1.6452681809
   91      H      -0.8647614176     3.2171195972    -0.7311238823
   92      H       2.2613846697    -3.7413558566     0.5039217648
   93      H       2.3102534293    -3.7851017799    -1.2617430782
   94      H       0.8503045618    -3.2054696590    -0.4325936937
   95      H       0.2425566306     1.5245835855    -0.6085451711
   96      H      -0.2614474917    -1.5118112432    -0.5186847562
 ----------------------------------------------------------------
 Nuclear Repulsion Energy =        3300.14423429 hartrees
 There are      148 alpha and      148 beta electrons
 Requested basis set is cc-pVDZ
 There are 408 shells and 840 basis functions

 Total QAlloc Memory Limit  64000 MB
 Mega-Array Size       188 MB
 MEM_STATIC part       192 MB
 
 Citation of the SMD model:
 Marenich, A.V.; Cramer, C.J.; Truhlar, D.G.
 J. Phys. Chem. B 2009, 113, 6378-6396.
 iSolventCode=         119
 Solvent: methanol                                                        
 
 vradii
            1           2           3           4           5           6
    1   1.8500000   1.8500000   1.8500000   1.8500000   1.8500000   1.8500000
            7           8           9          10          11          12
    1   1.8500000   1.8500000   1.8500000   1.8500000   1.8500000   1.8500000
           13          14          15          16          17          18
    1   1.8500000   1.8500000   1.8500000   1.8500000   1.8500000   1.8500000
           19          20          21          22          23          24
    1   1.8500000   1.8500000   1.8500000   1.8500000   1.8500000   1.8500000
           25          26          27          28          29          30
    1   1.8500000   1.8500000   1.8500000   1.8500000   1.8500000   1.8500000
           31          32          33          34          35          36
    1   1.8500000   1.8500000   1.8500000   1.8500000   1.8500000   1.8500000
           37          38          39          40          41          42
    1   1.8500000   1.8500000   1.8500000   1.8500000   1.2000000   1.2000000
           43          44          45          46          47          48
    1   1.2000000   1.2000000   1.2000000   1.2000000   1.2000000   1.2000000
           49          50          51          52          53          54
    1   1.2000000   1.2000000   1.2000000   1.2000000   1.2000000   1.2000000
           55          56          57          58          59          60
    1   1.2000000   1.2000000   1.2000000   1.2000000   1.2000000   1.2000000
           61          62          63          64          65          66
    1   1.2000000   1.2000000   1.2000000   1.2000000   1.2000000   1.2000000
           67          68          69          70          71          72
    1   1.2000000   1.2000000   1.2000000   1.2000000   1.2000000   1.2000000
           73          74          75          76          77          78
    1   1.2000000   1.2000000   1.2000000   1.2000000   1.2000000   1.2000000
           79          80          81          82          83          84
    1   1.2000000   1.2000000   1.2000000   1.2000000   1.2000000   1.2000000
           85          86          87          88          89          90
    1   1.2000000   1.2000000   1.2000000   1.2000000   1.2000000   1.2000000
           91          92          93          94          95          96
    1   1.2000000   1.2000000   1.2000000   1.2000000   1.2000000   1.2000000
 Changing PCM_VDW_RADII to SMD_RADIUS
 Discretize the solute cavity surface with Lebedev spheres
	Using 110 Lebedev grid points for each H atom
	Using 194 Lebedev grid points for other atoms
	Atomic van der Waals radii will be scaled by 1.20
 Remove points where switching function is < 1.0e-08
 Keep 6534 surface tesserae and discard 7386 interior tesserae
 Molecular Surface Area = 744.600 Angst**2
 A cutoff of  1.0D-11 yielded  22863 shell pairs
 There are     92523 function pairs (    101094 Cartesian)
 Smallest overlap matrix eigenvalue = 3.81E-04

 Scale SEOQF with 1.000000e-03/1.000000e-02/1.000000e-01

 Standard Electronic Orientation quadrupole field applied
 Nucleus-field energy     =     0.0000000128 hartrees
 Guess from superposition of atomic densities
 Warning:  Energy on first SCF cycle will be non-variational
 SAD guess density has 296.000000 electrons

 -----------------------------------------------------------------------
  General SCF calculation program by
  Eric Jon Sundstrom, Paul Horn, Yuezhi Mao, Dmitri Zuev, Alec White,
  David Stuck, Shaama M.S., Shane Yost, Joonho Lee, David Small,
  Daniel Levine, Susi Lehtola, Hugh Burton, Evgeny Epifanovsky,
  Bang C. Huynh
 -----------------------------------------------------------------------
 Exchange:  TPSS      Correlation:  TPSS
 Using SG-2 standard quadrature grid
 
 Citation of the SMD model:
 Marenich, A.V.; Cramer, C.J.; Truhlar, D.G.
 J. Phys. Chem. B 2009, 113, 6378-6396.
 iSolventCode=         119
 Solvent: methanol                                                        
 
 vradii
            1           2           3           4           5           6
    1   1.8500000   1.8500000   1.8500000   1.8500000   1.8500000   1.8500000
            7           8           9          10          11          12
    1   1.8500000   1.8500000   1.8500000   1.8500000   1.8500000   1.8500000
           13          14          15          16          17          18
    1   1.8500000   1.8500000   1.8500000   1.8500000   1.8500000   1.8500000
           19          20          21          22          23          24
    1   1.8500000   1.8500000   1.8500000   1.8500000   1.8500000   1.8500000
           25          26          27          28          29          30
    1   1.8500000   1.8500000   1.8500000   1.8500000   1.8500000   1.8500000
           31          32          33          34          35          36
    1   1.8500000   1.8500000   1.8500000   1.8500000   1.8500000   1.8500000
           37          38          39          40          41          42
    1   1.8500000   1.8500000   1.8500000   1.8500000   1.2000000   1.2000000
           43          44          45          46          47          48
    1   1.2000000   1.2000000   1.2000000   1.2000000   1.2000000   1.2000000
           49          50          51          52          53          54
    1   1.2000000   1.2000000   1.2000000   1.2000000   1.2000000   1.2000000
           55          56          57          58          59          60
    1   1.2000000   1.2000000   1.2000000   1.2000000   1.2000000   1.2000000
           61          62          63          64          65          66
    1   1.2000000   1.2000000   1.2000000   1.2000000   1.2000000   1.2000000
           67          68          69          70          71          72
    1   1.2000000   1.2000000   1.2000000   1.2000000   1.2000000   1.2000000
           73          74          75          76          77          78
    1   1.2000000   1.2000000   1.2000000   1.2000000   1.2000000   1.2000000
           79          80          81          82          83          84
    1   1.2000000   1.2000000   1.2000000   1.2000000   1.2000000   1.2000000
           85          86          87          88          89          90
    1   1.2000000   1.2000000   1.2000000   1.2000000   1.2000000   1.2000000
           91          92          93          94          95          96
    1   1.2000000   1.2000000   1.2000000   1.2000000   1.2000000   1.2000000
 using 32 threads for integral computing
 -------------------------------------------------------
 OpenMP Integral computing Module                
 Release: version 1.0, May 2013, Q-Chem Inc. Pittsburgh 
 -------------------------------------------------------
 A restricted SCF calculation will be
 performed using DIIS
 SCF converges when DIIS error is below 1.0e-08
 ---------------------------------------
  Cycle       Energy         DIIS error
 ---------------------------------------
    1   -1564.2453270671      2.46e-02  
    2   -1557.2324985232      3.10e-03  
    3   -1557.1080968276      3.29e-03  
    4   -1558.2379704880      2.59e-04  
    5   -1558.2426380483      1.37e-04  
    6   -1558.2440712522      7.44e-05  
    7   -1558.2446140931      1.68e-05  
    8   -1558.2446413291      3.78e-06  
    9   -1558.2446425722      1.65e-06  
   10   -1558.2446428203      8.37e-07  
   11   -1558.2446426915      1.16e-07  
   12   -1558.2446427191      4.33e-08  
   13   -1558.2446427106      1.38e-08  
   14   -1558.2446427473      7.25e-09  Convergence criterion met
 ---------------------------------------
 SCF time:   CPU 5142.68s  wall 357.00s 
(3)  G-ENP(liq) elect-nuc-pol free energy of system    -1558.244642747 a.u.
(4)  G-CDS(liq) cavity-dispersion-solvent structure 
     free energy                                               -7.5307 kcal/mol
(6)  G-S(liq) free energy of system                    -1558.256643690 a.u.
 SCF   energy in the final basis set =    -1558.2566436904
 Total energy in the final basis set =    -1558.2566436904
 
 Direct TDDFT/TDA calculation will be performed
 Exchange:  TPSS      Correlation:  TPSS
 Using SG-2 standard quadrature grid
 Singlet excitation energies requested
 Adding PCM contribution to the XC response (LR-PCM)
 CIS energy converged when residual is below 10e- 6
 ---------------------------------------------------
 Iter    Rts Conv    Rts Left    Ttl Dev     Max Dev
 ---------------------------------------------------
   1         0          15      0.002353    0.000429
   2         0          15      0.000727    0.000253
   3         0          15      0.000282    0.000129
   4         8           7      0.000121    0.000062
   5        12           3      0.000104    0.000061
   6        13           2      0.000056    0.000036
   7        13           2      0.000015    0.000007
   8        14           1      0.000006    0.000001
   9        15           0      0.000005    0.000001    Roots Converged
 ---------------------------------------------------
 
 ---------------------------------------------------
         TDDFT/TDA Excitation Energies              
 ---------------------------------------------------

 Excited state   1: excitation energy (eV) =    1.9497
 Total energy for state  1:                 -1558.18499434 au
    Multiplicity: Singlet
    Trans. Mom.: -0.1019 X   0.0382 Y  -0.0372 Z
    Strength   :     0.0006320591
    D(  147) --> V(    1) amplitude =  0.7669
    D(  148) --> V(    2) amplitude = -0.6411

 Excited state   2: excitation energy (eV) =    1.9578
 Total energy for state  2:                 -1558.18469429 au
    Multiplicity: Singlet
    Trans. Mom.: ******* X   4.0608 Y  -0.3433 Z
    Strength   :     6.0251024082
    D(  146) --> V(    1) amplitude = -0.2588
    D(  148) --> V(    1) amplitude =  0.9470

 Excited state   3: excitation energy (eV) =    2.5858
 Total energy for state  3:                 -1558.16161573 au
    Multiplicity: Singlet
    Trans. Mom.: -2.7904 X   1.4744 Y  -0.1106 Z
    Strength   :     0.6317576578
    D(  146) --> V(    1) amplitude =  0.8205
    D(  148) --> V(    3) amplitude =  0.4679

 Excited state   4: excitation energy (eV) =    2.6811
 Total energy for state  4:                 -1558.15811589 au
    Multiplicity: Singlet
    Trans. Mom.: -0.0009 X  -0.0031 Y  -0.1395 Z
    Strength   :     0.0012785678
    D(  145) --> V(    1) amplitude =  0.9690

 Excited state   5: excitation energy (eV) =    2.7384
 Total energy for state  5:                 -1558.15600869 au
    Multiplicity: Singlet
    Trans. Mom.:  0.7418 X  -0.1865 Y   0.0170 Z
    Strength   :     0.0392696512
    D(  144) --> V(    1) amplitude =  0.9610
    D(  148) --> V(    3) amplitude = -0.2223

 Excited state   6: excitation energy (eV) =    2.8121
 Total energy for state  6:                 -1558.15330217 au
    Multiplicity: Singlet
    Trans. Mom.: -3.0929 X   1.4769 Y  -0.1062 Z
    Strength   :     0.8101201042
    D(  147) --> V(    2) amplitude =  0.7836
    D(  148) --> V(    3) amplitude = -0.5709

 Excited state   7: excitation energy (eV) =    3.0535
 Total energy for state  7:                 -1558.14442995 au
    Multiplicity: Singlet
    Trans. Mom.: -0.0008 X  -0.0084 Y  -0.1624 Z
    Strength   :     0.0019775008
    D(  143) --> V(    1) amplitude =  0.6706
    D(  147) --> V(    1) amplitude =  0.4009
    D(  147) --> V(    3) amplitude = -0.2649
    D(  148) --> V(    2) amplitude =  0.4903

 Excited state   8: excitation energy (eV) =    3.2719
 Total energy for state  8:                 -1558.13640430 au
    Multiplicity: Singlet
    Trans. Mom.: -0.0008 X   0.0053 Y   0.1069 Z
    Strength   :     0.0009185190
    D(  143) --> V(    1) amplitude =  0.2624
    D(  146) --> V(    2) amplitude =  0.7844
    D(  147) --> V(    3) amplitude =  0.4812

 Excited state   9: excitation energy (eV) =    3.3985
 Total energy for state  9:                 -1558.13175207 au
    Multiplicity: Singlet
    Trans. Mom.:  0.0013 X  -0.0088 Y  -0.1328 Z
    Strength   :     0.0014750278
    D(  143) --> V(    1) amplitude = -0.5145
    D(  146) --> V(    2) amplitude =  0.3161
    D(  147) --> V(    1) amplitude =  0.2802
    D(  148) --> V(    2) amplitude =  0.3317
    D(  148) --> V(    4) amplitude =  0.6250

 Excited state  10: excitation energy (eV) =    3.5052
 Total energy for state 10:                 -1558.12783137 au
    Multiplicity: Singlet
    Trans. Mom.:  0.1782 X  -0.4360 Y   0.0277 Z
    Strength   :     0.0191171698
    D(  145) --> V(    2) amplitude =  0.9868

 Excited state  11: excitation energy (eV) =    3.5168
 Total energy for state 11:                 -1558.12740421 au
    Multiplicity: Singlet
    Trans. Mom.: -0.0029 X   0.0084 Y   0.1125 Z
    Strength   :     0.0010975632
    D(  144) --> V(    2) amplitude =  0.8700
    D(  147) --> V(    3) amplitude = -0.4153

 Excited state  12: excitation energy (eV) =    3.6366
 Total energy for state 12:                 -1558.12300225 au
    Multiplicity: Singlet
    Trans. Mom.:  0.3253 X   0.3214 Y  -0.0194 Z
    Strength   :     0.0186611508
    D(  142) --> V(    1) amplitude =  0.8932
    D(  143) --> V(    2) amplitude =  0.2253

 Excited state  13: excitation energy (eV) =    3.7117
 Total energy for state 13:                 -1558.12024258 au
    Multiplicity: Singlet
    Trans. Mom.: -0.0015 X  -0.0082 Y  -0.1667 Z
    Strength   :     0.0025333462
    D(  144) --> V(    2) amplitude =  0.4234
    D(  147) --> V(    1) amplitude =  0.3037
    D(  147) --> V(    3) amplitude =  0.5023
    D(  148) --> V(    2) amplitude =  0.3530
    D(  148) --> V(    4) amplitude = -0.4699

 Excited state  14: excitation energy (eV) =    4.0010
 Total energy for state 14:                 -1558.10960973 au
    Multiplicity: Singlet
    Trans. Mom.: -0.7160 X   0.5476 Y  -0.0340 Z
    Strength   :     0.0797567609
    D(  143) --> V(    2) amplitude = -0.8504
    D(  146) --> V(    3) amplitude = -0.2908
    D(  147) --> V(    4) amplitude =  0.3517

 Excited state  15: excitation energy (eV) =    4.0432
 Total energy for state 15:                 -1558.10805955 au
    Multiplicity: Singlet
    Trans. Mom.:  0.3548 X   0.4959 Y  -0.0295 Z
    Strength   :     0.0369134257
    D(  148) --> V(    5) amplitude = -0.9156
 
 ---------------------------------------------------
  SETman timing summary (seconds)
  CPU time              6503.50s
  System time              0.01s
  Wall time             1635.22s
 Created directory /tmpu/qchem-scratch/qchem12600/plots
================================================================================
                             Excited State Analysis
================================================================================

  Ground State (Reference) :
  -------------------------
    NOs
      Occupation of frontier NOs:
         0.0000   0.0000   2.0000   2.0000
      Number of electrons: 296.000000
      Number of unpaired electrons: n_u = -0.00000, n_u,nl =  0.00000
    
    Mulliken Population Analysis
    Atom      Charge (e)
    --------------------
     1 C        0.047641
     2 C        0.047992
     3 C        0.025516
     4 C        0.025044
     5 C       -0.229661
     6 C       -0.229212
     7 C       -0.069768
     8 C       -0.070178
     9 C       -0.240982
    10 C       -0.240693
    11 C        0.026705
    12 C        0.026741
    13 C        0.016530
    14 C        0.015845
    15 C        0.018158
    16 C        0.009569
    17 C        0.018170
    18 C        0.009566
    19 C       -0.033928
    20 C       -0.034119
    21 C       -0.003409
    22 C       -0.003350
    23 C       -0.147501
    24 C       -0.147315
    25 C        0.030381
    26 C        0.030339
    27 C        0.003966
    28 C        0.003916
    29 C       -0.035067
    30 C       -0.035054
    31 C        0.000875
    32 C        0.000914
    33 C       -0.145592
    34 C       -0.145597
    35 C       -0.000097
    36 C       -0.000132
    37 C        0.032261
    38 C        0.032270
    39 C       -0.015451
    40 C       -0.015434
    41 H        0.015299
    42 H        0.031210
    43 H        0.015107
    44 H        0.031737
    45 H        0.027420
    46 H        0.030182
    47 H        0.027308
    48 H        0.030043
    49 H       -0.013919
    50 H       -0.013843
    51 H        0.043026
    52 H        0.059312
    53 H        0.042581
    54 H        0.043046
    55 H        0.059312
    56 H        0.042615
    57 H       -0.019133
    58 H       -0.019114
    59 H        0.040376
    60 H        0.025429
    61 H        0.041174
    62 H        0.043569
    63 H        0.042707
    64 H        0.033299
    65 H        0.040339
    66 H        0.025449
    67 H        0.041231
    68 H        0.043543
    69 H        0.042698
    70 H        0.033364
    71 H        0.002412
    72 H        0.002404
    73 H       -0.015287
    74 H       -0.015341
    75 H        0.056066
    76 H        0.055714
    77 H        0.038928
    78 H        0.055854
    79 H        0.055902
    80 H        0.038896
    81 H       -0.013070
    82 H       -0.013080
    83 H        0.006445
    84 H        0.006417
    85 H       -0.012597
    86 H       -0.012584
    87 H       -0.009598
    88 H       -0.009575
    89 H        0.056759
    90 H        0.056745
    91 H        0.039878
    92 H        0.056551
    93 H        0.056890
    94 H        0.039869
    95 H        0.005098
    96 H        0.005079
    --------------------
    Sum:       -0.000000
    
    Multipole moment analysis of the density matrix
      Molecular charge:                      -0.000000
      Number of electrons:                   296.000000
        Center of electronic charge [Ang]: [ -0.010509,   0.024498,  -0.033910]
      Total nuclear charge:                  296.000000
        Center of nuclear charge [Ang]:    [ -0.010517,   0.024509,  -0.033701]
      Dipole moment [D]:                     0.297484
        Cartesian components [D]:          [ -0.011721,   0.016735,   0.296781]
      RMS size of the density [Ang]:        11.532019
        Cartesian components [Ang]:        [ 11.018999,   3.268481,   0.941352]
    

  ----------------------------------------------------------------------------
                  Analysis of Unrelaxed Density Matrices
  ----------------------------------------------------------------------------

  Singlet 1 :
  -------------------------
    NOs
      Occupation of frontier NOs:
         0.4108   0.5889   1.4111   1.5892
      Number of electrons: 296.000000
      Number of unpaired electrons: n_u =  2.00000, n_u,nl =  2.23360
      NO participation ratio (PR_NO):  3.879066
    
    NDOs
      Leading detachment eigenvalues:
        -0.5889  -0.4108
      Leading attachment eigenvalues:
         0.5889   0.4108
      Number of detached / attached electrons: p_D =  1.0000, p_A =  1.0000
      Number of involved orbitals: PR_D =  1.939533, PR_A =  1.939533
    
    Mulliken Population Analysis
    Atom      Charge (e)              h+              e-           Del q
    --------------------------------------------------------------------
     1 C        0.048800        0.002707       -0.001548        0.001159
     2 C        0.049319        0.002828       -0.001501        0.001327
     3 C        0.027555        0.004541       -0.002502        0.002039
     4 C        0.027327        0.004678       -0.002394        0.002283
     5 C       -0.217341        0.064653       -0.052333        0.012320
     6 C       -0.212844        0.067128       -0.050761        0.016367
     7 C       -0.068602        0.001816       -0.000650        0.001166
     8 C       -0.068897        0.001908       -0.000626        0.001281
     9 C       -0.239151        0.002331       -0.000500        0.001831
    10 C       -0.238698        0.002487       -0.000492        0.001995
    11 C        0.027768        0.002242       -0.001179        0.001063
    12 C        0.027923        0.002328       -0.001146        0.001181
    13 C        0.036181        0.025761       -0.006110        0.019651
    14 C        0.036620        0.026737       -0.005962        0.020774
    15 C        0.018271        0.000176       -0.000064        0.000113
    16 C        0.009642        0.000091       -0.000019        0.000073
    17 C        0.018293        0.000184       -0.000061        0.000123
    18 C        0.009645        0.000097       -0.000018        0.000080
    19 C       -0.039997        0.055199       -0.061268       -0.006070
    20 C       -0.036374        0.057212       -0.059467       -0.002255
    21 C        0.009978        0.037401       -0.024015        0.013387
    22 C        0.011887        0.038672       -0.023435        0.015237
    23 C       -0.163305        0.039477       -0.055282       -0.015804
    24 C       -0.160378        0.040743       -0.053806       -0.013063
    25 C        0.030121        0.000825       -0.001084       -0.000260
    26 C        0.030132        0.000849       -0.001056       -0.000206
    27 C        0.019562        0.053693       -0.038098        0.015596
    28 C        0.022210        0.055457       -0.037162        0.018294
    29 C       -0.054688        0.028409       -0.048030       -0.019621
    30 C       -0.053378        0.028903       -0.047227       -0.018324
    31 C       -0.001205        0.051606       -0.053686       -0.002080
    32 C        0.001812        0.053141       -0.052243        0.000897
    33 C       -0.162961        0.025649       -0.043019       -0.017369
    34 C       -0.163313        0.025444       -0.043159       -0.017716
    35 C       -0.007250        0.041377       -0.048530       -0.007153
    36 C       -0.004859        0.042543       -0.047270       -0.004727
    37 C        0.032131        0.000781       -0.000910       -0.000129
    38 C        0.032132        0.000774       -0.000912       -0.000138
    39 C       -0.029709        0.032646       -0.046904       -0.014258
    40 C       -0.031338        0.031924       -0.047829       -0.015904
    41 H        0.015310        0.000102       -0.000091        0.000011
    42 H        0.032451        0.003847       -0.002605        0.001241
    43 H        0.015122        0.000092       -0.000078        0.000015
    44 H        0.033242        0.004085       -0.002580        0.001505
    45 H        0.027903        0.000770       -0.000288        0.000483
    46 H        0.030256        0.000065        0.000010        0.000074
    47 H        0.027834        0.000816       -0.000290        0.000526
    48 H        0.030117        0.000061        0.000014        0.000074
    49 H       -0.013920        0.000025       -0.000026       -0.000001
    50 H       -0.013843        0.000024       -0.000023        0.000001
    51 H        0.043909        0.002488       -0.001605        0.000883
    52 H        0.060694        0.004123       -0.002742        0.001381
    53 H        0.042492        0.000349       -0.000437       -0.000088
    54 H        0.044050        0.002569       -0.001565        0.001004
    55 H        0.060946        0.004279       -0.002646        0.001634
    56 H        0.042532        0.000381       -0.000464       -0.000082
    57 H       -0.019008        0.000153       -0.000029        0.000124
    58 H       -0.018984        0.000160       -0.000031        0.000129
    59 H        0.040448        0.000079       -0.000007        0.000072
    60 H        0.025430        0.000003       -0.000002        0.000001
    61 H        0.041355        0.000234       -0.000054        0.000181
    62 H        0.043687        0.000162       -0.000044        0.000118
    63 H        0.042799        0.000104       -0.000012        0.000092
    64 H        0.033297        0.000016       -0.000018       -0.000002
    65 H        0.040418        0.000086       -0.000007        0.000079
    66 H        0.025450        0.000003       -0.000002        0.000001
    67 H        0.041426        0.000248       -0.000052        0.000196
    68 H        0.043673        0.000174       -0.000044        0.000130
    69 H        0.042797        0.000112       -0.000012        0.000099
    70 H        0.033361        0.000018       -0.000021       -0.000002
    71 H        0.002248        0.000399       -0.000562       -0.000163
    72 H        0.002274        0.000415       -0.000545       -0.000130
    73 H       -0.015247        0.000217       -0.000176        0.000041
    74 H       -0.015289        0.000225       -0.000173        0.000052
    75 H        0.055966        0.002359       -0.002459       -0.000100
    76 H        0.055591        0.002318       -0.002440       -0.000122
    77 H        0.038912        0.000004       -0.000020       -0.000016
    78 H        0.055926        0.002421       -0.002349        0.000072
    79 H        0.055890        0.002417       -0.002429       -0.000012
    80 H        0.038882        0.000004       -0.000018       -0.000014
    81 H       -0.013024        0.000321       -0.000275        0.000046
    82 H       -0.013018        0.000331       -0.000269        0.000063
    83 H        0.006235        0.000201       -0.000410       -0.000209
    84 H        0.006217        0.000204       -0.000404       -0.000200
    85 H       -0.012698        0.000316       -0.000417       -0.000101
    86 H       -0.012665        0.000325       -0.000405       -0.000080
    87 H       -0.009702        0.000246       -0.000350       -0.000104
    88 H       -0.009663        0.000253       -0.000340       -0.000087
    89 H        0.056356        0.001404       -0.001807       -0.000403
    90 H        0.056353        0.001374       -0.001765       -0.000392
    91 H        0.039870        0.000010       -0.000017       -0.000008
    92 H        0.056153        0.001381       -0.001779       -0.000398
    93 H        0.056446        0.001384       -0.001827       -0.000444
    94 H        0.039862        0.000009       -0.000016       -0.000006
    95 H        0.004945        0.000213       -0.000366       -0.000153
    96 H        0.004912        0.000207       -0.000374       -0.000167
    --------------------------------------------------------------------
    Sum:       -0.000000        1.000000       -1.000000       -0.000000
    
    Multipole moment analysis of the density matrix
      Molecular charge:                      -0.000000
      Number of electrons:                   296.000000
        Center of electronic charge [Ang]: [ -0.011180,   0.024729,  -0.034071]
      Total nuclear charge:                  296.000000
        Center of nuclear charge [Ang]:    [ -0.010517,   0.024509,  -0.033701]
      Dipole moment [D]:                     1.122447
        Cartesian components [D]:          [  0.941368,  -0.312258,   0.525557]
      RMS size of the density [Ang]:        11.529789
        Cartesian components [Ang]:        [ 11.016759,   3.268170,   0.941337]
    
    Exciton analysis of the difference density matrix
      <r_h> [Ang]:                  [  0.111435,  -0.025318,  -0.438735]
      <r_e> [Ang]:                  [ -0.086993,   0.043177,  -0.486365]
      |<r_e - r_h>| [Ang]:            0.215252
      Hole size [Ang]:                8.733404
        Cartesian components [Ang]: [  8.180318,   2.936281,   0.856155]
      Electron size [Ang]:            7.811736
        Cartesian components [Ang]: [  7.233058,   2.832373,   0.826899]

  Singlet 2 :
  -------------------------
    NOs
      Occupation of frontier NOs:
         0.0190   0.9693   1.0307   1.9810
      Number of electrons: 296.000000
      Number of unpaired electrons: n_u =  2.00000, n_u,nl =  1.99914
      NO participation ratio (PR_NO):  2.127962
    
    NDOs
      Leading detachment eigenvalues:
        -0.9693  -0.0190
      Leading attachment eigenvalues:
         0.9693   0.0190
      Number of detached / attached electrons: p_D =  1.0000, p_A =  1.0000
      Number of involved orbitals: PR_D =  1.063981, PR_A =  1.063981
    
    Mulliken Population Analysis
    Atom      Charge (e)              h+              e-           Del q
    --------------------------------------------------------------------
     1 C        0.049944        0.004148       -0.001845        0.002303
     2 C        0.050146        0.004043       -0.001890        0.002154
     3 C        0.029380        0.006539       -0.002675        0.003864
     4 C        0.028622        0.006291       -0.002712        0.003578
     5 C       -0.199936        0.079642       -0.049917        0.029725
     6 C       -0.203574        0.077136       -0.051498        0.025638
     7 C       -0.067201        0.003437       -0.000871        0.002566
     8 C       -0.067709        0.003354       -0.000885        0.002469
     9 C       -0.237376        0.004400       -0.000793        0.003607
    10 C       -0.237167        0.004345       -0.000819        0.003526
    11 C        0.028621        0.003176       -0.001261        0.001916
    12 C        0.028524        0.003080       -0.001297        0.001783
    13 C        0.040942        0.027909       -0.003497        0.024412
    14 C        0.039090        0.026893       -0.003648        0.023245
    15 C        0.018396        0.000333       -0.000095        0.000238
    16 C        0.009728        0.000193       -0.000034        0.000159
    17 C        0.018398        0.000323       -0.000095        0.000228
    18 C        0.009722        0.000191       -0.000034        0.000157
    19 C       -0.026848        0.066515       -0.059435        0.007080
    20 C       -0.030814        0.064525       -0.061220        0.003305
    21 C        0.016146        0.031905       -0.012350        0.019555
    22 C        0.014189        0.030558       -0.013019        0.017539
    23 C       -0.159588        0.049301       -0.061389       -0.012088
    24 C       -0.161952        0.048118       -0.062755       -0.014637
    25 C        0.030283        0.001211       -0.001309       -0.000097
    26 C        0.030192        0.001189       -0.001335       -0.000146
    27 C        0.027649        0.042030       -0.018347        0.023683
    28 C        0.024812        0.040231       -0.019335        0.020896
    29 C       -0.063203        0.036291       -0.064427       -0.028136
    30 C       -0.064307        0.035878       -0.065131       -0.029253
    31 C        0.000217        0.034044       -0.034702       -0.000658
    32 C       -0.002792        0.032479       -0.036185       -0.003706
    33 C       -0.178160        0.028110       -0.060678       -0.032568
    34 C       -0.177659        0.028368       -0.060430       -0.032062
    35 C       -0.008606        0.031237       -0.039745       -0.008508
    36 C       -0.011088        0.030060       -0.041016       -0.010956
    37 C        0.031581        0.000617       -0.001296       -0.000679
    38 C        0.031601        0.000626       -0.001294       -0.000668
    39 C       -0.046744        0.026012       -0.057306       -0.031294
    40 C       -0.045004        0.026776       -0.056346       -0.029570
    41 H        0.015334        0.000187       -0.000152        0.000036
    42 H        0.033730        0.005352       -0.002831        0.002520
    43 H        0.015130        0.000165       -0.000143        0.000022
    44 H        0.034073        0.005302       -0.002966        0.002336
    45 H        0.028150        0.001162       -0.000432        0.000730
    46 H        0.030288        0.000105        0.000002        0.000106
    47 H        0.028003        0.001146       -0.000451        0.000695
    48 H        0.030144        0.000094        0.000007        0.000101
    49 H       -0.013925        0.000045       -0.000052       -0.000006
    50 H       -0.013851        0.000042       -0.000050       -0.000008
    51 H        0.044544        0.003307       -0.001790        0.001518
    52 H        0.061863        0.005450       -0.002899        0.002550
    53 H        0.042633        0.000510       -0.000457        0.000053
    54 H        0.044392        0.003191       -0.001845        0.001346
    55 H        0.061625        0.005278       -0.002966        0.002312
    56 H        0.042622        0.000520       -0.000512        0.000008
    57 H       -0.019047        0.000236       -0.000151        0.000085
    58 H       -0.019036        0.000229       -0.000152        0.000078
    59 H        0.040519        0.000173       -0.000030        0.000143
    60 H        0.025429        0.000007       -0.000006        0.000001
    61 H        0.041530        0.000449       -0.000093        0.000355
    62 H        0.043803        0.000315       -0.000081        0.000234
    63 H        0.042892        0.000215       -0.000030        0.000185
    64 H        0.033293        0.000026       -0.000032       -0.000006
    65 H        0.040481        0.000173       -0.000031        0.000142
    66 H        0.025450        0.000007       -0.000006        0.000001
    67 H        0.041576        0.000440       -0.000095        0.000345
    68 H        0.043772        0.000313       -0.000084        0.000229
    69 H        0.042880        0.000213       -0.000031        0.000182
    70 H        0.033354        0.000027       -0.000037       -0.000010
    71 H        0.002320        0.000600       -0.000691       -0.000092
    72 H        0.002285        0.000586       -0.000705       -0.000119
    73 H       -0.015243        0.000241       -0.000197        0.000044
    74 H       -0.015309        0.000234       -0.000203        0.000032
    75 H        0.056180        0.003178       -0.003064        0.000114
    76 H        0.055793        0.003121       -0.003042        0.000079
    77 H        0.038886        0.000044       -0.000086       -0.000042
    78 H        0.055862        0.003076       -0.003068        0.000008
    79 H        0.055817        0.003078       -0.003164       -0.000086
    80 H        0.038855        0.000043       -0.000084       -0.000041
    81 H       -0.012964        0.000295       -0.000189        0.000106
    82 H       -0.012992        0.000284       -0.000196        0.000088
    83 H        0.006130        0.000329       -0.000643       -0.000314
    84 H        0.006094        0.000326       -0.000649       -0.000323
    85 H       -0.012654        0.000231       -0.000287       -0.000057
    86 H       -0.012662        0.000221       -0.000299       -0.000078
    87 H       -0.009665        0.000210       -0.000277       -0.000067
    88 H       -0.009660        0.000202       -0.000287       -0.000085
    89 H        0.055870        0.001779       -0.002668       -0.000888
    90 H        0.055874        0.001738       -0.002608       -0.000870
    91 H        0.039827        0.000028       -0.000079       -0.000051
    92 H        0.055747        0.001770       -0.002573       -0.000804
    93 H        0.056000        0.001768       -0.002659       -0.000891
    94 H        0.039821        0.000029       -0.000077       -0.000048
    95 H        0.004843        0.000197       -0.000452       -0.000255
    96 H        0.004838        0.000203       -0.000444       -0.000241
    --------------------------------------------------------------------
    Sum:       -0.000000        1.000000       -1.000000       -0.000000
    
    Multipole moment analysis of the density matrix
      Molecular charge:                      -0.000000
      Number of electrons:                   296.000000
        Center of electronic charge [Ang]: [ -0.009843,   0.024250,  -0.034130]
      Total nuclear charge:                  296.000000
        Center of nuclear charge [Ang]:    [ -0.010517,   0.024509,  -0.033701]
      Dipole moment [D]:                     1.194622
        Cartesian components [D]:          [ -0.958915,   0.369070,   0.609420]
      RMS size of the density [Ang]:        11.528003
        Cartesian components [Ang]:        [ 11.015013,   3.267755,   0.941340]
    
    Exciton analysis of the difference density matrix
      <r_h> [Ang]:                  [ -0.127209,   0.058339,  -0.415513]
      <r_e> [Ang]:                  [  0.069991,  -0.015015,  -0.480602]
      |<r_e - r_h>| [Ang]:            0.220240
      Hole size [Ang]:                9.341920
        Cartesian components [Ang]: [  8.766742,   3.106299,   0.875569]
      Electron size [Ang]:            7.733786
        Cartesian components [Ang]: [  7.131833,   2.870982,   0.840163]

  Singlet 3 :
  -------------------------
    NOs
      Occupation of frontier NOs:
         0.1952   0.7734   1.2266   1.8048
      Number of electrons: 296.000000
      Number of unpaired electrons: n_u =  2.00000, n_u,nl =  2.05450
      NO participation ratio (PR_NO):  3.139385
    
    NDOs
      Leading detachment eigenvalues:
        -0.7734  -0.1952
      Leading attachment eigenvalues:
         0.7734   0.1952
      Number of detached / attached electrons: p_D =  1.0000, p_A =  1.0000
      Number of involved orbitals: PR_D =  1.569692, PR_A =  1.569692
    
    Mulliken Population Analysis
    Atom      Charge (e)              h+              e-           Del q
    --------------------------------------------------------------------
     1 C        0.051579        0.005878       -0.001939        0.003938
     2 C        0.052046        0.005984       -0.001931        0.004054
     3 C        0.028450        0.005961       -0.003027        0.002934
     4 C        0.028078        0.006011       -0.002977        0.003034
     5 C       -0.262329        0.030263       -0.062931       -0.032668
     6 C       -0.261632        0.030360       -0.062780       -0.032420
     7 C       -0.033562        0.037132       -0.000927        0.036205
     8 C       -0.033146        0.037954       -0.000922        0.037032
     9 C       -0.208635        0.033082       -0.000735        0.032347
    10 C       -0.207600        0.033835       -0.000742        0.033093
    11 C        0.026706        0.001462       -0.001462        0.000001
    12 C        0.026757        0.001476       -0.001461        0.000015
    13 C        0.037027        0.030948       -0.010451        0.020497
    14 C        0.036534        0.031128       -0.010440        0.020688
    15 C        0.019844        0.001770       -0.000084        0.001686
    16 C        0.011176        0.001633       -0.000026        0.001607
    17 C        0.019894        0.001807       -0.000082        0.001725
    18 C        0.011211        0.001672       -0.000026        0.001646
    19 C       -0.083509        0.014551       -0.064132       -0.049581
    20 C       -0.083519        0.014553       -0.063954       -0.049400
    21 C        0.002411        0.036560       -0.030740        0.005820
    22 C        0.002623        0.036682       -0.030709        0.005973
    23 C       -0.176981        0.023002       -0.052483       -0.029481
    24 C       -0.176558        0.023090       -0.052333       -0.029243
    25 C        0.030487        0.001154       -0.001048        0.000106
    26 C        0.030454        0.001161       -0.001045        0.000116
    27 C       -0.012470        0.017555       -0.033991       -0.016436
    28 C       -0.012423        0.017539       -0.033877       -0.016338
    29 C       -0.034014        0.051844       -0.050792        0.001052
    30 C       -0.033780        0.052003       -0.050729        0.001274
    31 C       -0.025197        0.009255       -0.035328       -0.026073
    32 C       -0.025046        0.009243       -0.035204       -0.025961
    33 C       -0.122779        0.073177       -0.050363        0.022813
    34 C       -0.122658        0.073260       -0.050321        0.022939
    35 C       -0.001196        0.029829       -0.030927       -0.001099
    36 C       -0.001093        0.029913       -0.030875       -0.000961
    37 C        0.033840        0.002723       -0.001143        0.001579
    38 C        0.033853        0.002726       -0.001143        0.001583
    39 C       -0.004426        0.057172       -0.046147        0.011025
    40 C       -0.004448        0.057130       -0.046143        0.010986
    41 H        0.015292        0.000124       -0.000131       -0.000007
    42 H        0.031105        0.003120       -0.003224       -0.000104
    43 H        0.015115        0.000122       -0.000115        0.000007
    44 H        0.031635        0.003182       -0.003285       -0.000103
    45 H        0.030408        0.003317       -0.000329        0.002988
    46 H        0.030299        0.000102        0.000016        0.000117
    47 H        0.030318        0.003352       -0.000342        0.003010
    48 H        0.030173        0.000109        0.000022        0.000130
    49 H       -0.013730        0.000229       -0.000040        0.000189
    50 H       -0.013647        0.000233       -0.000037        0.000196
    51 H        0.042238        0.001240       -0.002028       -0.000788
    52 H        0.058070        0.002195       -0.003437       -0.001243
    53 H        0.042293        0.000264       -0.000552       -0.000288
    54 H        0.042242        0.001231       -0.002035       -0.000804
    55 H        0.058107        0.002203       -0.003409       -0.001206
    56 H        0.042291        0.000277       -0.000601       -0.000324
    57 H       -0.019009        0.000198       -0.000074        0.000124
    58 H       -0.018990        0.000199       -0.000076        0.000124
    59 H        0.042660        0.002297       -0.000013        0.002284
    60 H        0.025436        0.000010       -0.000003        0.000007
    61 H        0.043847        0.002748       -0.000075        0.002673
    62 H        0.045956        0.002456       -0.000069        0.002387
    63 H        0.044831        0.002142       -0.000019        0.002124
    64 H        0.033295        0.000021       -0.000026       -0.000005
    65 H        0.042674        0.002348       -0.000013        0.002335
    66 H        0.025456        0.000010       -0.000003        0.000007
    67 H        0.043963        0.002808       -0.000075        0.002733
    68 H        0.045991        0.002520       -0.000071        0.002448
    69 H        0.044865        0.002186       -0.000019        0.002167
    70 H        0.033356        0.000023       -0.000031       -0.000008
    71 H        0.001933        0.000117       -0.000596       -0.000479
    72 H        0.001931        0.000119       -0.000593       -0.000473
    73 H       -0.015326        0.000228       -0.000267       -0.000039
    74 H       -0.015380        0.000229       -0.000268       -0.000039
    75 H        0.054973        0.001274       -0.002368       -0.001093
    76 H        0.054606        0.001244       -0.002352       -0.001108
    77 H        0.038924        0.000023       -0.000027       -0.000004
    78 H        0.054804        0.001267       -0.002316       -0.001050
    79 H        0.054768        0.001263       -0.002398       -0.001134
    80 H        0.038893        0.000023       -0.000025       -0.000003
    81 H       -0.013237        0.000099       -0.000266       -0.000167
    82 H       -0.013247        0.000099       -0.000266       -0.000167
    83 H        0.006368        0.000393       -0.000470       -0.000077
    84 H        0.006341        0.000394       -0.000470       -0.000076
    85 H       -0.012823        0.000051       -0.000277       -0.000226
    86 H       -0.012809        0.000051       -0.000276       -0.000225
    87 H       -0.009624        0.000180       -0.000206       -0.000026
    88 H       -0.009601        0.000180       -0.000206       -0.000026
    89 H        0.059076        0.004611       -0.002294        0.002318
    90 H        0.058992        0.004488       -0.002241        0.002247
    91 H        0.039872        0.000033       -0.000039       -0.000006
    92 H        0.058841        0.004526       -0.002236        0.002290
    93 H        0.059181        0.004587       -0.002296        0.002291
    94 H        0.039864        0.000033       -0.000038       -0.000005
    95 H        0.005100        0.000373       -0.000371        0.000002
    96 H        0.005080        0.000373       -0.000372        0.000001
    --------------------------------------------------------------------
    Sum:       -0.000000        1.000000       -1.000000       -0.000000
    
    Multipole moment analysis of the density matrix
      Molecular charge:                      -0.000000
      Number of electrons:                   296.000000
        Center of electronic charge [Ang]: [ -0.010665,   0.024518,  -0.034906]
      Total nuclear charge:                  296.000000
        Center of nuclear charge [Ang]:    [ -0.010517,   0.024509,  -0.033701]
      Dipole moment [D]:                     1.726751
        Cartesian components [D]:          [  0.210393,  -0.011936,   1.713844]
      RMS size of the density [Ang]:        11.527849
        Cartesian components [Ang]:        [ 11.014459,   3.269210,   0.940886]
    
    Exciton analysis of the difference density matrix
      <r_h> [Ang]:                  [  0.030535,   0.011707,  -0.175914]
      <r_e> [Ang]:                  [ -0.015708,   0.017676,  -0.470938]
      |<r_e - r_h>| [Ang]:            0.298686
      Hole size [Ang]:                9.860739
        Cartesian components [Ang]: [  9.422727,   2.704476,   1.064051]
      Electron size [Ang]:            8.282704
        Cartesian components [Ang]: [  7.692609,   2.953817,   0.837801]

  Singlet 4 :
  -------------------------
    NOs
      Occupation of frontier NOs:
         0.0380   0.9586   1.0414   1.9620
      Number of electrons: 296.000000
      Number of unpaired electrons: n_u =  2.00000, n_u,nl =  2.00436
      NO participation ratio (PR_NO):  2.172990
    
    NDOs
      Leading detachment eigenvalues:
        -0.9586  -0.0380
      Leading attachment eigenvalues:
         0.9586   0.0380
      Number of detached / attached electrons: p_D =  1.0000, p_A =  1.0000
      Number of involved orbitals: PR_D =  1.086495, PR_A =  1.086495
    
    Mulliken Population Analysis
    Atom      Charge (e)              h+              e-           Del q
    --------------------------------------------------------------------
     1 C        0.062237        0.015816       -0.001220        0.014597
     2 C        0.062487        0.015716       -0.001221        0.014495
     3 C        0.034883        0.011437       -0.002070        0.009367
     4 C        0.034243        0.011243       -0.002043        0.009199
     5 C       -0.266369        0.005593       -0.042301       -0.036708
     6 C       -0.265979        0.005561       -0.042329       -0.036767
     7 C        0.122393        0.192641       -0.000480        0.192161
     8 C        0.119209        0.189863       -0.000475        0.189387
     9 C       -0.082532        0.158816       -0.000365        0.158450
    10 C       -0.084566        0.156498       -0.000371        0.156127
    11 C        0.026064        0.000321       -0.000963       -0.000641
    12 C        0.026101        0.000323       -0.000964       -0.000641
    13 C        0.021437        0.007463       -0.002557        0.004906
    14 C        0.020666        0.007384       -0.002564        0.004821
    15 C        0.026754        0.008650       -0.000054        0.008596
    16 C        0.017749        0.008197       -0.000016        0.008181
    17 C        0.026638        0.008522       -0.000053        0.008469
    18 C        0.017630        0.008081       -0.000016        0.008065
    19 C       -0.087774        0.002470       -0.056317       -0.053846
    20 C       -0.087972        0.002466       -0.056319       -0.053853
    21 C       -0.009892        0.003320       -0.009802       -0.006482
    22 C       -0.009946        0.003265       -0.009861       -0.006596
    23 C       -0.206713        0.004767       -0.063980       -0.059213
    24 C       -0.206495        0.004745       -0.063925       -0.059180
    25 C        0.029373        0.000267       -0.001275       -0.001007
    26 C        0.029331        0.000266       -0.001274       -0.001008
    27 C       -0.012010        0.000846       -0.016823       -0.015976
    28 C       -0.012131        0.000835       -0.016882       -0.016047
    29 C       -0.100768        0.004888       -0.070589       -0.065701
    30 C       -0.100721        0.004854       -0.070521       -0.065667
    31 C       -0.032854        0.001772       -0.035501       -0.033729
    32 C       -0.032856        0.001768       -0.035538       -0.033770
    33 C       -0.209704        0.003563       -0.067675       -0.064112
    34 C       -0.209662        0.003550       -0.067615       -0.064065
    35 C       -0.040272        0.003306       -0.043480       -0.040175
    36 C       -0.040324        0.003276       -0.043468       -0.040192
    37 C        0.030953        0.000103       -0.001411       -0.001308
    38 C        0.030962        0.000103       -0.001411       -0.001308
    39 C       -0.075299        0.003046       -0.062895       -0.059849
    40 C       -0.075261        0.003071       -0.062897       -0.059827
    41 H        0.015469        0.000242       -0.000072        0.000170
    42 H        0.031639        0.002548       -0.002119        0.000429
    43 H        0.015298        0.000255       -0.000064        0.000191
    44 H        0.032060        0.002487       -0.002164        0.000323
    45 H        0.039755        0.012622       -0.000286        0.012335
    46 H        0.030288        0.000105        0.000001        0.000106
    47 H        0.039218        0.012204       -0.000293        0.011911
    48 H        0.030181        0.000134        0.000005        0.000138
    49 H       -0.012780        0.001161       -0.000022        0.001139
    50 H       -0.012719        0.001144       -0.000021        0.001124
    51 H        0.041788        0.000058       -0.001296       -0.001238
    52 H        0.057308        0.000185       -0.002190       -0.002004
    53 H        0.042451        0.000198       -0.000328       -0.000129
    54 H        0.041802        0.000056       -0.001300       -0.001244
    55 H        0.057320        0.000189       -0.002181       -0.001992
    56 H        0.042460        0.000203       -0.000357       -0.000155
    57 H       -0.019010        0.000130       -0.000008        0.000123
    58 H       -0.018990        0.000132       -0.000009        0.000124
    59 H        0.052612        0.012244       -0.000008        0.012237
    60 H        0.025469        0.000043       -0.000003        0.000040
    61 H        0.053734        0.012608       -0.000048        0.012560
    62 H        0.055519        0.011988       -0.000038        0.011950
    63 H        0.053524        0.010828       -0.000011        0.010817
    64 H        0.033351        0.000066       -0.000014        0.000052
    65 H        0.052370        0.012039       -0.000008        0.012031
    66 H        0.025489        0.000043       -0.000003        0.000040
    67 H        0.053620        0.012438       -0.000048        0.012390
    68 H        0.055348        0.011844       -0.000039        0.011805
    69 H        0.053321        0.010634       -0.000011        0.010623
    70 H        0.033415        0.000067       -0.000016        0.000051
    71 H        0.001933        0.000026       -0.000504       -0.000478
    72 H        0.001927        0.000027       -0.000504       -0.000477
    73 H       -0.015311        0.000036       -0.000059       -0.000023
    74 H       -0.015366        0.000035       -0.000060       -0.000025
    75 H        0.053460        0.000295       -0.002901       -0.002606
    76 H        0.053148        0.000292       -0.002858       -0.002566
    77 H        0.038909        0.000004       -0.000023       -0.000019
    78 H        0.053296        0.000290       -0.002848       -0.002557
    79 H        0.053284        0.000294       -0.002913       -0.002618
    80 H        0.038879        0.000004       -0.000021       -0.000017
    81 H       -0.013162        0.000008       -0.000100       -0.000092
    82 H       -0.013173        0.000008       -0.000101       -0.000093
    83 H        0.005859        0.000038       -0.000624       -0.000586
    84 H        0.005831        0.000038       -0.000624       -0.000586
    85 H       -0.012838        0.000013       -0.000254       -0.000241
    86 H       -0.012825        0.000013       -0.000254       -0.000241
    87 H       -0.009868        0.000025       -0.000295       -0.000270
    88 H       -0.009845        0.000025       -0.000295       -0.000270
    89 H        0.054138        0.000230       -0.002851       -0.002621
    90 H        0.054185        0.000225       -0.002785       -0.002560
    91 H        0.039853        0.000002       -0.000027       -0.000025
    92 H        0.054004        0.000225       -0.002772       -0.002547
    93 H        0.054258        0.000228       -0.002859       -0.002632
    94 H        0.039846        0.000002       -0.000025       -0.000023
    95 H        0.004637        0.000026       -0.000487       -0.000461
    96 H        0.004617        0.000026       -0.000488       -0.000462
    --------------------------------------------------------------------
    Sum:       -0.000000        1.000000       -1.000000       -0.000000
    
    Multipole moment analysis of the density matrix
      Molecular charge:                      -0.000000
      Number of electrons:                   296.000000
        Center of electronic charge [Ang]: [ -0.010105,   0.024323,  -0.039025]
      Total nuclear charge:                  296.000000
        Center of nuclear charge [Ang]:    [ -0.010517,   0.024509,  -0.033701]
      Dipole moment [D]:                     7.597498
        Cartesian components [D]:          [ -0.586647,   0.265510,   7.570160]
      RMS size of the density [Ang]:        11.502053
        Cartesian components [Ang]:        [ 10.987886,   3.268283,   0.939100]
    
    Exciton analysis of the difference density matrix
      <r_h> [Ang]:                  [ -0.127527,   0.064812,   1.017916]
      <r_e> [Ang]:                  [ -0.007830,   0.013019,  -0.496361]
      |<r_e - r_h>| [Ang]:            1.519882
      Hole size [Ang]:               16.029494
        Cartesian components [Ang]: [ 15.740436,   2.854601,   1.017159]
      Electron size [Ang]:            7.317906
        Cartesian components [Ang]: [  6.715899,   2.787003,   0.825267]

  Singlet 5 :
  -------------------------
    NOs
      Occupation of frontier NOs:
         0.0501   0.9269   1.0731   1.9499
      Number of electrons: 296.000000
      Number of unpaired electrons: n_u =  2.00000, n_u,nl =  2.00176
      NO participation ratio (PR_NO):  2.319719
    
    NDOs
      Leading detachment eigenvalues:
        -0.9269  -0.0501
      Leading attachment eigenvalues:
         0.9269   0.0501
      Number of detached / attached electrons: p_D =  1.0000, p_A =  1.0000
      Number of involved orbitals: PR_D =  1.159860, PR_A =  1.159860
    
    Mulliken Population Analysis
    Atom      Charge (e)              h+              e-           Del q
    --------------------------------------------------------------------
     1 C        0.056709        0.010361       -0.001293        0.009068
     2 C        0.057329        0.010632       -0.001295        0.009337
     3 C        0.030094        0.006732       -0.002154        0.004578
     4 C        0.029652        0.006738       -0.002129        0.004609
     5 C       -0.255984        0.018422       -0.044745       -0.026323
     6 C       -0.255779        0.018278       -0.044845       -0.026567
     7 C        0.098775        0.169071       -0.000528        0.168543
     8 C        0.100016        0.170718       -0.000524        0.170194
     9 C       -0.108974        0.132374       -0.000366        0.132008
    10 C       -0.107478        0.133587       -0.000372        0.133215
    11 C        0.026595        0.000907       -0.001017       -0.000110
    12 C        0.026600        0.000878       -0.001020       -0.000142
    13 C        0.018453        0.005656       -0.003734        0.001922
    14 C        0.017631        0.005534       -0.003748        0.001786
    15 C        0.025534        0.007431       -0.000054        0.007377
    16 C        0.016573        0.007020       -0.000016        0.007004
    17 C        0.025613        0.007497       -0.000053        0.007443
    18 C        0.016635        0.007085       -0.000016        0.007069
    19 C       -0.080672        0.010124       -0.056868       -0.046745
    20 C       -0.080889        0.010179       -0.056949       -0.046770
    21 C       -0.004584        0.011935       -0.013111       -0.001175
    22 C       -0.004811        0.011744       -0.013205       -0.001461
    23 C       -0.205277        0.003934       -0.061711       -0.057777
    24 C       -0.205059        0.003968       -0.061712       -0.057744
    25 C        0.029273        0.000118       -0.001225       -0.001108
    26 C        0.029230        0.000117       -0.001225       -0.001109
    27 C       -0.004378        0.010975       -0.019318       -0.008344
    28 C       -0.004532        0.010980       -0.019427       -0.008447
    29 C       -0.095403        0.007724       -0.068060       -0.060336
    30 C       -0.095416        0.007657       -0.068020       -0.060362
    31 C       -0.028071        0.005532       -0.034478       -0.028946
    32 C       -0.028081        0.005583       -0.034578       -0.028995
    33 C       -0.197554        0.014853       -0.066814       -0.051961
    34 C       -0.197552        0.014796       -0.066751       -0.051955
    35 C       -0.035585        0.005473       -0.040961       -0.035488
    36 C       -0.035668        0.005454       -0.040991       -0.035536
    37 C        0.031578        0.000721       -0.001404       -0.000683
    38 C        0.031585        0.000719       -0.001404       -0.000685
    39 C       -0.065148        0.011865       -0.061562       -0.049698
    40 C       -0.065089        0.011886       -0.061541       -0.049655
    41 H        0.015385        0.000161       -0.000074        0.000086
    42 H        0.029708        0.000743       -0.002245       -0.001502
    43 H        0.015210        0.000168       -0.000065        0.000102
    44 H        0.030194        0.000753       -0.002296       -0.001544
    45 H        0.036592        0.009458       -0.000286        0.009172
    46 H        0.030220        0.000034        0.000004        0.000038
    47 H        0.036326        0.009313       -0.000295        0.009018
    48 H        0.030098        0.000047        0.000008        0.000055
    49 H       -0.012917        0.001025       -0.000022        0.001002
    50 H       -0.012830        0.001034       -0.000021        0.001013
    51 H        0.042655        0.001005       -0.001376       -0.000371
    52 H        0.058409        0.001424       -0.002328       -0.000903
    53 H        0.042264        0.000031       -0.000348       -0.000316
    54 H        0.042652        0.000991       -0.001384       -0.000393
    55 H        0.058393        0.001402       -0.002321       -0.000920
    56 H        0.042267        0.000033       -0.000380       -0.000347
    57 H       -0.019026        0.000120       -0.000014        0.000106
    58 H       -0.019003        0.000125       -0.000015        0.000110
    59 H        0.051224        0.010854       -0.000006        0.010849
    60 H        0.025464        0.000037       -0.000002        0.000035
    61 H        0.051311        0.010181       -0.000045        0.010136
    62 H        0.053607        0.010074       -0.000036        0.010038
    63 H        0.051985        0.009288       -0.000010        0.009278
    64 H        0.033342        0.000058       -0.000015        0.000043
    65 H        0.051253        0.010920       -0.000006        0.010914
    66 H        0.025484        0.000037       -0.000002        0.000035
    67 H        0.051487        0.010301       -0.000045        0.010256
    68 H        0.053698        0.010192       -0.000038        0.010155
    69 H        0.052026        0.009338       -0.000010        0.009328
    70 H        0.033407        0.000061       -0.000018        0.000043
    71 H        0.001972        0.000068       -0.000508       -0.000440
    72 H        0.001965        0.000068       -0.000508       -0.000439
    73 H       -0.015300        0.000076       -0.000089       -0.000013
    74 H       -0.015356        0.000075       -0.000090       -0.000015
    75 H        0.053506        0.000219       -0.002779       -0.002560
    76 H        0.053202        0.000227       -0.002739       -0.002512
    77 H        0.038909        0.000002       -0.000020       -0.000018
    78 H        0.053344        0.000221       -0.002730       -0.002510
    79 H        0.053340        0.000231       -0.002794       -0.002563
    80 H        0.038879        0.000002       -0.000019       -0.000017
    81 H       -0.013128        0.000064       -0.000122       -0.000058
[...]
      H- 1 -> L+ 1: -0.1171 (  2.7%)
      H- 6 -> L+ 0:  0.0848 (  1.4%)
                     omega = 100.0%

  Singlet 4 :
  -------------------------
    Decomposition into state-averaged NTOs
      H- 3 -> L+ 0:  0.6543 ( 85.6%)
      H- 1 -> L+ 0: -0.1857 (  6.9%)
      H- 0 -> L+ 1: -0.1335 (  3.6%)
      H- 5 -> L+ 0:  0.1287 (  3.3%)
                     omega = 100.0%

  Singlet 5 :
  -------------------------
    Decomposition into state-averaged NTOs
      H- 2 -> L+ 0: -0.5677 ( 64.5%)
      H- 4 -> L+ 0:  0.3694 ( 27.3%)
      H- 0 -> L+ 2:  0.1522 (  4.6%)
      H- 1 -> L+ 1:  0.1050 (  2.2%)
                     omega = 100.0%

  Singlet 6 :
  -------------------------
    Decomposition into state-averaged NTOs
      H- 1 -> L+ 1: -0.5533 ( 61.2%)
      H- 0 -> L+ 2:  0.3940 ( 31.0%)
      H- 0 -> L+ 0: -0.1133 (  2.6%)
      H- 0 -> L+ 3: -0.0937 (  1.8%)
                     omega = 100.0%

  Singlet 7 :
  -------------------------
    Decomposition into state-averaged NTOs
      H- 5 -> L+ 0:  0.4356 ( 38.0%)
      H- 0 -> L+ 1: -0.3449 ( 23.8%)
      H- 1 -> L+ 0: -0.2591 ( 13.4%)
      H- 3 -> L+ 0: -0.2490 ( 12.4%)
      H- 1 -> L+ 2:  0.1784 (  6.4%)
      H- 4 -> L+ 1: -0.1400 (  3.9%)
                     omega = 100.0%

  Singlet 8 :
  -------------------------
    Decomposition into state-averaged NTOs
      H- 4 -> L+ 1: -0.4379 ( 38.4%)
      H- 2 -> L+ 1: -0.3377 ( 22.8%)
      H- 1 -> L+ 2: -0.3271 ( 21.4%)
      H- 5 -> L+ 0:  0.1916 (  7.3%)
      H- 0 -> L+ 1:  0.1394 (  3.9%)
      H- 1 -> L+ 0:  0.1074 (  2.3%)
      H- 1 -> L+ 3:  0.0828 (  1.4%)
      H- 6 -> L+ 1:  0.0712 (  1.0%)
                     omega = 100.0%

  Singlet 9 :
  -------------------------
    Decomposition into state-averaged NTOs
      H- 0 -> L+ 4:  0.4405 ( 38.8%)
      H- 5 -> L+ 0: -0.3756 ( 28.2%)
      H- 0 -> L+ 1: -0.2333 ( 10.9%)
      H- 4 -> L+ 1: -0.2213 (  9.8%)
      H- 1 -> L+ 0: -0.1914 (  7.3%)
      H- 1 -> L+ 2: -0.0993 (  2.0%)
      H- 6 -> L+ 1:  0.0820 (  1.3%)
                     omega = 100.0%

  Singlet 10 :
  -------------------------
    Decomposition into state-averaged NTOs
      H- 3 -> L+ 1:  0.6846 ( 93.7%)
      H- 1 -> L+ 1: -0.1134 (  2.6%)
      H- 5 -> L+ 1:  0.0916 (  1.7%)
                     omega = 100.0%

  Singlet 11 :
  -------------------------
    Decomposition into state-averaged NTOs
      H- 2 -> L+ 1: -0.5851 ( 68.5%)
      H- 1 -> L+ 2:  0.2838 ( 16.1%)
      H- 4 -> L+ 1:  0.2121 (  9.0%)
      H- 0 -> L+ 4:  0.1428 (  4.1%)
                     omega = 100.0%

  Singlet 12 :
  -------------------------
    Decomposition into state-averaged NTOs
      H- 6 -> L+ 0: -0.5988 ( 71.7%)
      H- 4 -> L+ 0: -0.2261 ( 10.2%)
      H- 5 -> L+ 1:  0.1603 (  5.1%)
      H- 4 -> L+ 2:  0.1187 (  2.8%)
      H- 0 -> L+ 2:  0.1169 (  2.7%)
      H- 1 -> L+ 1:  0.1120 (  2.5%)
      H- 1 -> L+ 4:  0.0857 (  1.5%)
      H- 0 -> L+ 5:  0.0804 (  1.3%)
      H- 0 -> L+ 3: -0.0724 (  1.0%)
                     omega = 100.0%

  Singlet 13 :
  -------------------------
    Decomposition into state-averaged NTOs
      H- 1 -> L+ 2: -0.3559 ( 25.3%)
      H- 0 -> L+ 4: -0.3348 ( 22.4%)
      H- 4 -> L+ 1:  0.2702 ( 14.6%)
      H- 0 -> L+ 1: -0.2558 ( 13.1%)
      H- 1 -> L+ 0: -0.2102 (  8.8%)
      H- 2 -> L+ 1: -0.1946 (  7.6%)
      H- 5 -> L+ 0: -0.1305 (  3.4%)
                     omega = 100.0%

  Singlet 14 :
  -------------------------
    Decomposition into state-averaged NTOs
      H- 5 -> L+ 1: -0.5936 ( 70.5%)
      H- 1 -> L+ 4:  0.2455 ( 12.1%)
      H- 4 -> L+ 2:  0.1728 (  6.0%)
      H- 0 -> L+ 3: -0.1424 (  4.1%)
      H- 2 -> L+ 2:  0.1081 (  2.3%)
      H- 3 -> L+ 1:  0.0987 (  1.9%)
      H- 0 -> L+ 5:  0.0727 (  1.1%)
                     omega = 100.0%

  Singlet 15 :
  -------------------------
    Decomposition into state-averaged NTOs
      H- 0 -> L+ 3:  0.6015 ( 72.4%)
      H- 0 -> L+ 2:  0.2736 ( 15.0%)
      H- 4 -> L+ 2:  0.1249 (  3.1%)
      H- 1 -> L+ 4:  0.1079 (  2.3%)
      H- 1 -> L+ 1:  0.1011 (  2.0%)
      H- 4 -> L+ 0: -0.0973 (  1.9%)
      H- 6 -> L+ 0:  0.0770 (  1.2%)
                     omega = 100.0%

================================================================================
 
 --------------------------------------------------------------
 
                    Orbital Energies (a.u.)
 --------------------------------------------------------------
 
 Alpha MOs
 -- Occupied --
-10.0044 -10.0044 -10.0032 -10.0032  -9.9993  -9.9993  -9.9972  -9.9968
 -9.9952  -9.9952  -9.9948  -9.9948  -9.9938  -9.9938  -9.9938  -9.9937
 -9.9934  -9.9934  -9.9925  -9.9925  -9.9921  -9.9920  -9.9917  -9.9917
 -9.9914  -9.9914  -9.9909  -9.9909  -9.9906  -9.9906  -9.9898  -9.9898
 -9.9876  -9.9876  -9.9871  -9.9871  -9.9867  -9.9867  -9.9800  -9.9800
 -0.7757  -0.7728  -0.7679  -0.7641  -0.7583  -0.7548  -0.7437  -0.7425
 -0.7290  -0.7131  -0.7052  -0.6918  -0.6842  -0.6714  -0.6677  -0.6454
 -0.6299  -0.6296  -0.6286  -0.6286  -0.6264  -0.6255  -0.6179  -0.6132
 -0.6046  -0.5780  -0.5627  -0.5524  -0.5393  -0.5201  -0.4984  -0.4931
 -0.4824  -0.4797  -0.4783  -0.4755  -0.4691  -0.4638  -0.4601  -0.4538
 -0.4364  -0.4286  -0.4255  -0.4211  -0.4187  -0.4160  -0.4083  -0.4069
 -0.3981  -0.3940  -0.3881  -0.3866  -0.3812  -0.3805  -0.3790  -0.3732
 -0.3724  -0.3718  -0.3696  -0.3691  -0.3668  -0.3650  -0.3629  -0.3621
 -0.3503  -0.3498  -0.3418  -0.3385  -0.3346  -0.3334  -0.3334  -0.3288
 -0.3287  -0.3284  -0.3251  -0.3232  -0.3216  -0.3215  -0.3188  -0.3185
 -0.3165  -0.3128  -0.3111  -0.3090  -0.3079  -0.3028  -0.3021  -0.2975
 -0.2944  -0.2940  -0.2938  -0.2931  -0.2908  -0.2900  -0.2822  -0.2819
 -0.2796  -0.2749  -0.2735  -0.2735  -0.2517  -0.2307  -0.2143  -0.2004
 -0.1989  -0.1895  -0.1680  -0.1463
 -- Virtual --
 -0.1001  -0.0705  -0.0438  -0.0145   0.0028   0.0042   0.0104   0.0307
  0.0515   0.0546   0.0548   0.0582   0.0613   0.0642   0.0665   0.0693
  0.0700   0.0729   0.0739   0.0740   0.0756   0.0757   0.0793   0.0817
  0.0817   0.0832   0.0892   0.0904   0.1023   0.1023   0.1113   0.1114
  0.1118   0.1125   0.1149   0.1249   0.1266   0.1270   0.1274   0.1307
  0.1319   0.1327   0.1332   0.1356   0.1364   0.1394   0.1427   0.1436
  0.1451   0.1457   0.1469   0.1476   0.1485   0.1536   0.1562   0.1574
  0.1616   0.1668   0.1719   0.1831   0.1858   0.1955   0.1966   0.1984
  0.2008   0.2012   0.2028   0.2035   0.2057   0.2110   0.2111   0.2155
  0.2184   0.2198   0.2202   0.2216   0.2272   0.2289   0.2291   0.2368
  0.2379   0.2430   0.2480   0.2510   0.2678   0.2886   0.2980   0.3003
  0.3070   0.3112   0.3231   0.3288   0.3358   0.3425   0.3537   0.3580
  0.3588   0.3645   0.3716   0.3772   0.3819   0.3839   0.3858   0.3913
  0.3950   0.3957   0.3997   0.4006   0.4020   0.4030   0.4090   0.4092
  0.4123   0.4177   0.4197   0.4208   0.4236   0.4301   0.4307   0.4333
  0.4358   0.4360   0.4399   0.4401   0.4541   0.4593   0.4604   0.4613
  0.4651   0.4690   0.4704   0.4720   0.4724   0.4743   0.4765   0.4784
  0.4798   0.4815   0.4841   0.4864   0.4875   0.4881   0.4890   0.4906
  0.4917   0.4963   0.4989   0.4993   0.5034   0.5082   0.5085   0.5137
  0.5137   0.5146   0.5146   0.5212   0.5216   0.5274   0.5298   0.5349
  0.5400   0.5447   0.5485   0.5496   0.5528   0.5555   0.5614   0.5620
  0.5731   0.5735   0.5808   0.5844   0.5845   0.5870   0.5872   0.5881
  0.5907   0.5932   0.5974   0.5999   0.6011   0.6069   0.6111   0.6133
  0.6137   0.6146   0.6185   0.6214   0.6260   0.6278   0.6299   0.6315
  0.6315   0.6322   0.6348   0.6364   0.6396   0.6410   0.6414   0.6425
  0.6440   0.6448   0.6451   0.6474   0.6477   0.6502   0.6510   0.6537
  0.6546   0.6547   0.6585   0.6602   0.6615   0.6619   0.6666   0.6690
  0.6714   0.6715   0.6735   0.6751   0.6754   0.6764   0.6782   0.6818
  0.6830   0.6873   0.6888   0.6911   0.6935   0.6937   0.6970   0.6972
  0.6997   0.7004   0.7029   0.7043   0.7078   0.7083   0.7246   0.7258
  0.7272   0.7276   0.7318   0.7348   0.7352   0.7411   0.7435   0.7440
  0.7506   0.7524   0.7699   0.7705   0.7748   0.7754   0.7858   0.7864
  0.7917   0.7920   0.8027   0.8036   0.8500   0.8563   0.8573   0.8617
  0.8661   0.8677   0.8685   0.8752   0.8759   0.8778   0.8802   0.8832
  0.8942   0.8944   0.8982   0.9041   0.9054   0.9113   0.9189   0.9189
  0.9241   0.9301   0.9383   0.9393   0.9424   0.9467   0.9516   0.9577
  0.9579   0.9628   0.9672   0.9677   0.9699   0.9724   0.9790   0.9818
  0.9848   0.9872   0.9934   1.0026   1.0029   1.0128   1.0137   1.0260
  1.0316   1.0323   1.0355   1.0366   1.0406   1.0438   1.0475   1.0483
  1.0496   1.0568   1.0591   1.0618   1.0810   1.0907   1.0941   1.1108
  1.1212   1.1230   1.1331   1.1362   1.1379   1.1433   1.1494   1.1582
  1.1652   1.1730   1.1792   1.1885   1.1893   1.1985   1.1990   1.2040
  1.2073   1.2210   1.2371   1.2463   1.2597   1.2787   1.2829   1.2858
  1.2870   1.2976   1.2985   1.3115   1.3134   1.3140   1.3224   1.3244
  1.3260   1.3267   1.3294   1.3314   1.3342   1.3446   1.3474   1.3482
  1.3494   1.3527   1.3597   1.3785   1.3880   1.3920   1.3962   1.3968
  1.4045   1.4075   1.4131   1.4143   1.4163   1.4186   1.4188   1.4194
  1.4209   1.4215   1.4220   1.4252   1.4259   1.4283   1.4290   1.4439
  1.4445   1.4478   1.4532   1.4542   1.4555   1.4593   1.4616   1.4617
  1.4673   1.4687   1.4726   1.4753   1.4781   1.4869   1.4879   1.4932
  1.4943   1.4986   1.5008   1.5048   1.5083   1.5125   1.5212   1.5222
  1.5363   1.5382   1.5388   1.5449   1.5483   1.5497   1.5537   1.5615
  1.5630   1.5666   1.5702   1.5706   1.5724   1.5734   1.5895   1.5917
  1.5949   1.5982   1.5989   1.6076   1.6078   1.6120   1.6135   1.6136
  1.6193   1.6216   1.6324   1.6328   1.6337   1.6358   1.6363   1.6438
  1.6447   1.6488   1.6494   1.6509   1.6550   1.6552   1.6601   1.6634
  1.6635   1.6639   1.6686   1.6704   1.6772   1.6785   1.6839   1.6854
  1.6861   1.6890   1.6916   1.6929   1.6975   1.6987   1.7035   1.7043
  1.7069   1.7135   1.7143   1.7149   1.7179   1.7198   1.7205   1.7209
  1.7250   1.7267   1.7320   1.7327   1.7339   1.7367   1.7396   1.7424
  1.7439   1.7450   1.7454   1.7523   1.7602   1.7620   1.7628   1.7630
  1.7663   1.7687   1.7698   1.7794   1.7832   1.7895   1.7922   1.7942
  1.7979   1.7992   1.8038   1.8082   1.8133   1.8159   1.8183   1.8218
  1.8258   1.8313   1.8331   1.8379   1.8472   1.8483   1.8525   1.8529
  1.8610   1.8643   1.8706   1.8782   1.8846   1.8860   1.8949   1.8982
  1.9062   1.9084   1.9151   1.9207   1.9254   1.9255   1.9354   1.9459
  1.9520   1.9555   1.9662   1.9697   1.9770   1.9803   1.9937   1.9941
  1.9951   1.9967   1.9985   2.0026   2.0047   2.0076   2.0233   2.0242
  2.0305   2.0343   2.0351   2.0358   2.0449   2.0465   2.0500   2.0577
  2.0593   2.0643   2.0646   2.0674   2.0685   2.0777   2.0878   2.0961
  2.0974   2.1024   2.1038   2.1071   2.1096   2.1171   2.1184   2.1246
  2.1285   2.1324   2.1337   2.1398   2.1407   2.1438   2.1526   2.1589
  2.1597   2.1669   2.1704   2.1739   2.1780   2.1822   2.1831   2.1930
  2.1949   2.2004   2.2093   2.2165   2.2272   2.2353   2.2454   2.2480
  2.2501   2.2570   2.2573   2.2655   2.2764   2.2841   2.2895   2.2933
  2.2993   2.2996   2.3086   2.3136   2.3148   2.3227   2.3239   2.3250
  2.3278   2.3284   2.3363   2.3472   2.3489   2.3493   2.3573   2.3675
  2.3693   2.3741   2.3825   2.3883   2.3951   2.3953   2.4009   2.4010
  2.4140   2.4143   2.4227   2.4228   2.4261   2.4273   2.4286   2.4306
  2.4393   2.4393   2.4524   2.4526   2.4599   2.4606   2.4744   2.4746
  2.4850   2.4865   2.4911   2.4926   2.4953   2.4960   2.4972   2.4996
  2.5010   2.5016   2.5139   2.5150   2.5259   2.5265   2.5515   2.5517
  2.5539   2.5591   2.5629   2.5652   2.5700   2.5700   2.5941   2.5948
  2.6179   2.6205   2.6278   2.6290   2.6537   2.6907   2.7536   2.7539
  2.8030   2.8047   2.8252   2.8278   2.8456   2.8732   2.8994   2.9122
  2.9130   2.9576   3.0126   3.0167   3.0444   3.0591   3.0787   3.0811
  3.1127   3.1349   3.1627   3.1700
 --------------------------------------------------------------
 
 -----------------------------------------------------------------
                    Cartesian Multipole Moments
 -----------------------------------------------------------------
    Charge (ESU x 10^10)
                -0.0000
    Dipole Moment (Debye)
         X      -0.0117      Y       0.0167      Z       0.2968
       Tot       0.2975
    Quadrupole Moments (Debye-Ang)
        XX    -150.2305     XY     -43.9816     YY    -206.4903
        XZ       2.1154     YZ      -1.9837     ZZ    -261.0156
    Octopole Moments (Debye-Ang^2)
       XXX       3.9863    XXY      -0.0213    XYY      -1.3057
       YYY     -15.2113    XXZ      63.8989    XYZ      -7.5153
       YYZ      -0.0745    XZZ       4.3471    YZZ      -5.4729
       ZZZ      38.6227
    Hexadecapole Moments (Debye-Ang^3)
      XXXX -142027.9931   XXXY   11172.7375   XXYY  -27494.9191
      XYYY   20300.7504   YYYY  -14402.5289   XXXZ   -1527.6141
      XXYZ     -75.7955   XYYZ    -605.9368   YYYZ     572.3902
      XXZZ  -31032.8576   XYZZ    7786.3972   YYZZ   -2873.6604
      XZZZ   -2365.0940   YZZZ     677.5943   ZZZZ   -1348.6305
 -----------------------------------------------------------------
 Total job time:  2010.80s(wall), 12113.27s(cpu) 
 Tue Jul 12 07:39:41 2022

======= MOLDEN-FORMATTED INPUT FILE FOLLOWS =======
[Molden Format]
[Atoms] (Angs)
  C      1    6    -13.59463111      3.09106071     -0.57822734
  C      2    6     13.57267819     -3.03399234      0.11589549
  C      3    6    -14.36773546      3.36625842      0.72516495
  C      4    6     14.33898834     -3.28002375      1.42889415
  C      5    6    -12.29088265      3.83355372     -0.68155991
  C      6    6     12.27179114     -3.78238350      0.01826237
  C      7    6    -15.59092837      2.50933035      0.84037528
  C      8    6     15.55780117     -2.41542729      1.53448541
  C      9    6    -16.88041578      2.89148133      0.85556851
  C     10    6     16.84911030     -2.79133298      1.55089375
  C     11    6    -12.38420329      5.32744556     -0.73980615
  C     12    6     12.36817297     -5.27723186      0.00846215
  C     13    6    -11.12155004      3.14466166     -0.69723572
  C     14    6     11.10155006     -3.09717275     -0.03866412
  C     15    6    -17.98017927      1.87467797      0.96369603
  C     16    6    -17.35269262      4.31287248      0.77302940
  C     17    6     17.94458122     -1.76868176      1.64719283
  C     18    6     17.32746993     -4.21134482      1.48073426
  C     19    6     -9.78733778      3.69198243     -0.75779270
  C     20    6      9.77000952     -3.65031250     -0.10601377
  C     21    6     -8.67032108      2.91567301     -0.74870593
  C     22    6      8.65127368     -2.87831481     -0.16006078
  C     23    6     -7.30307985      3.38856433     -0.78473063
  C     24    6      7.28692079     -3.35787520     -0.21441461
  C     25    6     -7.05626373      4.86590393     -0.84621971
  C     26    6      7.04579989     -4.83734945     -0.20688041
  C     27    6     -6.29973143      2.45403335     -0.75264851
  C     28    6      6.28102383     -2.42704877     -0.26683143
  C     29    6     -4.88718119      2.68816520     -0.75739345
  C     30    6      4.87023680     -2.66645491     -0.31705818
  C     31    6     -3.97213071      1.67523759     -0.71175914
  C     32    6      3.95320596     -1.65583971     -0.37310894
  C     33    6     -2.53878857      1.82849026     -0.69598133
  C     34    6      2.52096884     -1.81267047     -0.42033418
  C     35    6     -1.77091935      0.68971496     -0.63631891
  C     36    6      1.75141428     -0.67506485     -0.48000785
  C     37    6     -1.96149629      3.21207864     -0.73949214
  C     38    6      1.94662468     -3.19801515     -0.40221024
  C     39    6     -0.34706716      0.60142241     -0.59437981
  C     40    6      0.32774168     -0.58832887     -0.53122515
  H     41    1    -13.40784996      2.00794886     -0.66343049
  H     42    1    -14.24486963      3.37278446     -1.42764789
  H     43    1     13.38326803     -1.95346777      0.00704014
  H     44    1     14.22916676     -3.33093028     -0.72360828
  H     45    1    -13.69394667      3.14818672      1.57435752
  H     46    1    -14.62182844      4.43454789      0.79318769
  H     47    1     13.65964441     -3.04879535      2.27007621
  H     48    1     14.59791032     -4.34549213      1.51922245
  H     49    1    -15.39192670      1.43051192      0.90189331
  H     50    1     15.35366874     -1.33701073      1.58553108
  H     51    1    -13.16843662      5.63637751     -1.45148812
  H     52    1    -12.67533575      5.74594815      0.23963053
  H     53    1    -11.44436758      5.81070129     -1.03835063
  H     54    1     13.16588250     -5.60697645     -0.67847610
  H     55    1     12.64040425     -5.66515890      1.00572106
  H     56    1     11.43476671     -5.77072742     -0.29347246
  H     57    1    -11.18317071      2.05008940     -0.64944198
  H     58    1     11.16010323     -2.00147789     -0.02639525
  H     59    1    -18.60694464      2.06056651      1.85402007
  H     60    1    -17.58906376      0.84816219      1.02679902
  H     61    1    -18.65871301      1.93359684      0.09428946
  H     62    1    -17.93158947      4.58248206      1.67399534
  H     63    1    -18.04061847      4.44062561     -0.08102891
  H     64    1    -16.53848561      5.04170942      0.66430315
  H     65    1     18.57481545     -1.94470410      2.53702459
  H     66    1     17.54913746     -0.74340599      1.70302412
  H     67    1     18.62060329     -1.83183594      0.77612752
  H     68    1     17.90837654     -4.47044319      2.38348457
  H     69    1     18.01510369     -4.34373543      0.62715225
  H     70    1     16.51619584     -4.94447102      1.37911549
  H     71    1     -9.67855616      4.77957929     -0.80059076
  H     72    1      9.66456093     -4.73904998     -0.10454823
  H     73    1     -8.79805738      1.82701705     -0.69978153
  H     74    1      8.77486430     -1.78810369     -0.15802737
  H     75    1     -7.49547947      5.37468890      0.02797262
  H     76    1     -7.53267392      5.30642447     -1.73769821
  H     77    1     -5.98952108      5.11993327     -0.87885481
  H     78    1      7.46652572     -5.29929297      0.70174944
  H     79    1      7.54385205     -5.32081349     -1.06362922
  H     80    1      5.98082784     -5.09709863     -0.25039827
  H     81    1     -6.60839653      1.40192137     -0.71055712
  H     82    1      6.58581784     -1.37295377     -0.26951394
  H     83    1     -4.53126146      3.72172063     -0.79191689
  H     84    1      4.51726853     -3.70159009     -0.30755883
  H     85    1     -4.34668736      0.64461481     -0.67716969
  H     86    1      4.32520311     -0.62376608     -0.38403252
  H     87    1     -2.30891578     -0.26607825     -0.61259562
  H     88    1      2.28777275      0.28190986     -0.48896962
  H     89    1     -2.30689868      3.80943823      0.12047125
  H     90    1     -2.29257836      3.74624585     -1.64526818
  H     91    1     -0.86476142      3.21711960     -0.73112388
  H     92    1      2.26138467     -3.74135586      0.50392176
  H     93    1      2.31025343     -3.78510178     -1.26174308
  H     94    1      0.85030456     -3.20546966     -0.43259369
  H     95    1      0.24255663      1.52458359     -0.60854517
  H     96    1     -0.26144749     -1.51181124     -0.51868476

======= END OF MOLDEN-FORMATTED INPUT FILE =======


        *************************************************************
        *                                                           *
        *  Thank you very much for using Q-Chem.  Have a nice day.  *
        *                                                           *
        *************************************************************


