
Running Job 1 of 1 ViolCAM-B3LYP.inp
qchem ViolCAM-B3LYP.inp_20844.0 /tmpu/qchem-scratch/qchem20844/ 0
/tmpu/appuserlic/qchem5.4/shared-memory/exe/qcprog.exe_s ViolCAM-B3LYP.inp_20844.0 /tmpu/qchem-scratch/qchem20844/
                  Welcome to Q-Chem
     A Quantum Leap Into The Future Of Chemistry


 Q-Chem 5.4, Q-Chem, Inc., Pleasanton, CA (2021)

 E. Epifanovsky,  A. T. B. Gilbert,  Xintian Feng,  Joonho Lee,  Yuezhi Mao,  
 N. Mardirossian,  P. Pokhilko,  A. White,  M. Wormit,  M. P. Coons,  
 A. L. Dempwolff,  Zhengting Gan,  D. Hait,  P. R. Horn,  L. D. Jacobson,  
 I. Kaliman,  J. Kussmann,  A. W. Lange,  Ka Un Lao,  D. S. Levine,  Jie Liu,  
 S. C. McKenzie,  A. F. Morrison,  K. Nanda,  F. Plasser,  D. R. Rehn,  
 M. L. Vidal,  Zhi-Qiang You,  Ying Zhu,  B. Alam,  B. Albrecht,  
 A. Aldossary,  E. Alguire,  J. H. Andersen,  D. Barton,  K. Begam,  A. Behn,  
 Y. A. Bernard,  E. J. Berquist,  H. Burton,  A. Carreras,  K. Carter-Fenk,  
 R. Chakraborty,  A. D. Chien,  K. D. Closser,  V. Cofer-Shabica,  
 S. Dasgupta,  Jia Deng,  M. de Wergifosse,  M. Diedenhofen,  Hainam Do,  
 S. Ehlert,  Po-Tung Fang,  S. Fatehi,  Qingguo Feng,  T. Friedhoff,  
 J. Gayvert,  Qinghui Ge,  G. Gidofalvi,  M. Goldey,  J. Gomes,  
 C. Gonzalez-Espinoza,  S. Gulania,  A. Gunina,  M. W. D. Hanson-Heine,  
 P. H. P. Harbach,  A. W. Hauser,  M. F. Herbst,  M. Hernandez Vera,  
 M. Hodecker,  Z. C. Holden,  S. Houck,  Xunkun Huang,  Kerwin Hui,  
 B. C. Huynh,  M. Ivanov,  Hyunjun Ji,  Hanjie Jiang,  B. Kaduk,  S. Kaehler,  
 K. Khistyaev,  Jaehoon Kim,  P. Klunzinger,  Z. Koczor-Benda,  
 Joong Hoon Koh,  D. Kosenkov,  L. Koulias,  T. Kowalczyk,  C. M. Krauter,  
 K. Kue,  A. Kunitsa,  T. Kus,  A. Landau,  K. V. Lawler,  D. Lefrancois,  
 S. Lehtola,  Rain Li,  Yi-Pei Li,  Jiashu Liang,  M. Liebenthal,  
 Hung-Hsuan Lin,  You-Sheng Lin,  Fenglai Liu,  Kuan-Yu Liu,  
 M. Loipersberger,  A. Luenser,  A. Manjanath,  P. Manohar,  E. Mansoor,  
 S. F. Manzer,  Shan-Ping Mao,  A. V. Marenich,  T. Markovich,  S. Mason,  
 S. A. Maurer,  P. F. McLaughlin,  M. F. S. J. Menger,  J.-M. Mewes,  
 S. A. Mewes,  P. Morgante,  J. W. Mullinax,  K. J. Oosterbaan,  G. Paran,  
 Alexander C. Paul,  Suranjan K. Paul,  F. Pavosevic,  Zheng Pei,  S. Prager,  
 E. I. Proynov,  E. Ramos,  B. Rana,  A. E. Rask,  A. Rettig,  R. M. Richard,  
 F. Rob,  E. Rossomme,  T. Scheele,  M. Scheurer,  M. Schneider,  
 N. Sergueev,  S. M. Sharada,  W. Skomorowski,  D. W. Small,  C. J. Stein,  
 Yu-Chuan Su,  E. J. Sundstrom,  Zhen Tao,  J. Thirman,  T. Tsuchimochi,  
 N. M. Tubman,  S. P. Veccham,  O. Vydrov,  J. Wenzel,  J. Witte,  A. Yamada,  
 Kun Yao,  S. Yeganeh,  S. R. Yost,  A. Zech,  Igor Ying Zhang,  Xing Zhang,  
 Yu Zhang,  D. Zuev,  A. Aspuru-Guzik,  A. T. Bell,  N. A. Besley,  
 K. B. Bravaya,  B. R. Brooks,  D. Casanova,  Jeng-Da Chai,  S. Coriani,  
 C. J. Cramer,  A. E. DePrince, III,  R. A. DiStasio Jr.,  A. Dreuw,  
 B. D. Dunietz,  T. R. Furlani,  W. A. Goddard III,  S. Grimme,  
 S. Hammes-Schiffer,  T. Head-Gordon,  W. J. Hehre,  Chao-Ping Hsu,  
 T.-C. Jagau,  Yousung Jung,  A. Klamt,  Jing Kong,  D. S. Lambrecht,  
 WanZhen Liang,  N. J. Mayhall,  C. W. McCurdy,  J. B. Neaton,  
 C. Ochsenfeld,  J. A. Parkhill,  R. Peverati,  V. A. Rassolov,  Yihan Shao,  
 L. V. Slipchenko,  T. Stauch,  R. P. Steele,  J. E. Subotnik,  
 A. J. W. Thom,  A. Tkatchenko,  D. G. Truhlar,  T. Van Voorhis,  
 T. A. Wesolowski,  K. B. Whaley,  H. L. Woodcock III,  P. M. Zimmerman,  
 S. Faraji,  P. M. W. Gill,  M. Head-Gordon,  J. M. Herbert,  A. I. Krylov

 Additional authors for Version 5.4.1: 
 S. Kotaru,  Shaozhi Li,  Xiangyuan Li,  F. Matz,  A. Molle,  Haisheng Ren,  
 Yingli Su,  Hung-Yi Tsai,  C. Utku,  Fang Wang

 Contributors to earlier versions of Q-Chem not listed above: 
 R. D. Adamson,  B. Austin,  R. Baer,  J. Baker,  G. J. O. Beran,  
 K. Brandhorst,  S. T. Brown,  E. F. C. Byrd,  A. K. Chakraborty,  
 G. K. L. Chan,  Chun-Min Chang,  Yunqing Chen,  C.-L. Cheng,  
 Siu Hung Chien,  D. M. Chipman,  D. L. Crittenden,  H. Dachsel,  
 R. J. Doerksen,  A. D. Dutoi,  R. G. Edgar,  J. Fosso-Tande,  
 L. Fusti-Molnar,  D. Ghosh,  A. Ghysels,  A. Golubeva-Zadorozhnaya,  
 J. Gonthier,  M. S. Gordon,  S. R. Gwaltney,  G. Hawkins,  J. E. Herr,  
 A. Heyden,  S. Hirata,  E. G. Hohenstein,  G. Kedziora,  F. J. Keil,  
 C. Kelley,  Jihan Kim,  R. A. King,  R. Z. Khaliullin,  P. P. Korambath,  
 W. Kurlancheek,  A. Laurent,  A. M. Lee,  M. S. Lee,  S. V. Levchenko,  
 Ching Yeh Lin,  D. Liotard,  E. Livshits,  R. C. Lochan,  I. Lotan,  
 L. A. Martinez-Martinez,  P. E. Maslen,  N. Nair,  D. P. O'Neill,  
 D. Neuhauser,  E. Neuscamman,  C. M. Oana,  R. Olivares-Amaya,  R. Olson,  
 T. M. Perrine,  B. Peters,  P. A. Pieniazek,  A. Prociuk,  Y. M. Rhee,  
 J. Ritchie,  M. A. Rohrdanz,  E. Rosta,  N. J. Russ,  H. F. Schaefer III,  
 M. W. Schmidt,  N. E. Schultz,  S. Sharma,  N. Shenvi,  C. D. Sherrill,  
 A. C. Simmonett,  A. Sodt,  T. Stein,  D. Stuck,  K. S. Thanthiriwatte,  
 V. Vanovschi,  L. Vogt,  Tao Wang,  A. Warshel,  M. A. Watson,  
 C. F. Williams,  Q. Wu,  X. Xu,  Jun Yang,  W. Zhang,  Yan Zhao

 Please cite Q-Chem as follows:
 Y. Shao et al., Mol. Phys. 113, 184-215 (2015)
 DOI: 10.1080/00268976.2014.952696

 Q-Chem 5.4.1 for Intel X86 EM64T Linux

 Parts of Q-Chem use Armadillo 9.800.1 (Horizon Scraper).
 http://arma.sourceforge.net/

 Q-Chem begins on Tue Jul 12 06:59:29 2022  

 Host: 
0

     Scratch files written to /tmpu/qchem-scratch/qchem20844//
 Aug1521 |scratch|qcdevops|jenkins|workspace|build_RNUM 6368   
 Processing $rem in /tmpu/appuserlic/qchem5.4/shared-memory/config/preferences:
 Processing $rem in /home/joaqbf_g/joaqbf/.qchemrc:
 Symmetry turned off for PCM/SM12/SMD calculation

 Checking the input file for inconsistencies... 	...done.

--------------------------------------------------------------
User input:
--------------------------------------------------------------
$molecule
0 1
O        11.2556877009    1.3252791884   -0.7248651144
O       -11.2805512239   -0.9372906212    1.0008985038
O        15.0472597816   -0.1734714874    0.2791145783
O       -15.4914999740   -1.2847883165    1.0492302224
C        11.5625444601    0.0347689395   -0.1807776403
C       -11.5635315159   -0.0549605124   -0.1007630884
C        12.1186608355    1.2750568868    0.4363573017
C       -12.0955453960    0.2213492343    1.2678124307
C        12.4333307322   -0.8416080688   -1.1002497313
C       -12.4614067482   -0.6771580104   -1.2007244630
C        13.5332479797    1.7361295053    0.1507359785
C       -13.5266121730   -0.1111425981    1.6068082186
C        13.6268951064   -0.0289867289   -1.6369619963
C       -13.9242536279   -0.7946472572   -0.7384928831
C        14.4186439988    0.7511152678   -0.6051843987
C       -14.1117798499   -1.1855530693    0.7150800164
C        11.5242704206    1.8591790012    1.6886988562
C       -11.4723437575    1.2557973859    2.1622616368
C        10.4128149313   -0.6631429448    0.4570003326
C       -10.3772234319    0.6962386242   -0.5946059031
C        11.5868128589   -1.2689109913   -2.3052096155
C        12.8962069346   -2.0969310924   -0.3499229885
C       -12.4516249435    0.1772045129   -2.4728105785
C       -11.8877645447   -2.0577641303   -1.5365742623
C         9.1300802180   -0.2859779348    0.2871857097
C        -9.1068382491    0.3662436693   -0.2875002449
C         7.9593061920   -0.9453604453    0.8448706100
C        -7.9089933758    1.0503035275   -0.7507062875
C         8.1621582196   -2.1448059297    1.7188794078
C        -8.0665170080    2.2359252224   -1.6526467050
C         6.7327114946   -0.4337940937    0.5227983557
C        -6.6999640728    0.5645039870   -0.3355752054
C         5.4438402903   -0.9199561819    0.9249320392
C        -5.3960357366    1.0637210183   -0.6670300802
C         4.2833531325   -0.3327275194    0.5149165576
C        -4.2498993978    0.4958396681   -0.1941921203
C         2.9468678285   -0.7582273071    0.8544237245
C        -2.9057787998    0.9310496209   -0.4893079941
C         2.7738239772   -1.9443828903    1.7550667328
C        -2.7142328862    2.1118261802   -1.3936828246
C         1.8972641115   -0.0504166731    0.3215010894
C        -1.8660940806    0.2316672553    0.0736532221
C         0.5005696304   -0.2920103509    0.5003345442
C        -0.4676516804    0.4744169806   -0.0885154828
H        13.4488693006    2.6741409890   -0.4242360889
H        14.0306645979    1.9998999265    1.0977622770
H       -13.5781072849   -0.4210631083    2.6644548548
H       -14.1387242665    0.8021486842    1.5103082431
H        13.2570962397    0.6960757687   -2.3797777344
H        14.3049150433   -0.7130215432   -2.1730713851
H       -14.4403564932   -1.5225972662   -1.3882384704
H       -14.4337264241    0.1753535937   -0.8802966099
H        15.1999617043    1.3272930768   -1.1351656615
H       -13.6077581937   -2.1473116157    0.9186004072
H        12.0660846005    1.4909663499    2.5743468644
H        11.6231077273    2.9569548886    1.6712470515
H        10.4619083331    1.6076566452    1.7989864185
H       -10.4290413343    1.4590225301    1.8904206638
H       -12.0394973506    2.1983409644    2.1071246047
H       -11.5017282431    0.9101641045    3.2080935499
H        10.6600419234   -1.5407165154    1.0597436760
H       -10.5875446737    1.5453201415   -1.2490044230
H        11.1681733030   -0.3946840334   -2.8298246753
H        12.2067116125   -1.8283699268   -3.0244653272
H        10.7511354161   -1.9197380075   -2.0035332373
H        12.0539521275   -2.7776800479   -0.1522546469
H        13.6261251450   -2.6518290426   -0.9610067307
H        13.3801526811   -1.8510187503    0.6043746937
H       -12.7406136173    1.2212244520   -2.2706852032
H       -13.1786857211   -0.2334890386   -3.1918123442
H       -11.4664569071    0.1802750543   -2.9638838025
H       -11.9630614914   -2.7488950652   -0.6843613012
H       -12.4318206602   -2.4997000955   -2.3865176753
H       -10.8247312041   -1.9848587892   -1.8190969445
H        15.5868344173    0.3431340406    0.8943755214
H       -15.8608636559   -2.0144946062    0.5317323858
H         8.9332873605    0.5957732558   -0.3329570230
H        -8.9450414896   -0.4918665814    0.3741286420
H         8.8044875732   -1.8969518920    2.5802352488
H         8.6764690044   -2.9498133311    1.1672302639
H         7.2211276644   -2.5528267564    2.1080502815
H        -8.6805544019    3.0162151581   -1.1726538633
H        -8.5889453028    1.9554681816   -2.5826772257
H        -7.1076125803    2.6896976191   -1.9317640240
H         6.7233665213    0.4498700895   -0.1275584754
H        -6.7203211106   -0.3118147406    0.3242478570
H         5.3955127556   -1.7982603321    1.5747959651
H        -5.3235313803    1.9330026362   -1.3262895232
H         4.3550567434    0.5438225386   -0.1409255621
H        -4.3399595665   -0.3741707344    0.4678755336
H         3.2138335095   -2.8489943309    1.3031022656
H         3.2947216842   -1.7878214912    2.7139711127
H         1.7215418961   -2.1590090085    1.9776459647
H        -3.2018416538    3.0089653122   -0.9776010005
H        -3.1769685818    1.9313133159   -2.3780646036
H        -1.6574981992    2.3525054731   -1.5609664309
H         2.1536626472    0.7992470743   -0.3233054056
H        -2.1320800188   -0.6161815782    0.7169710918
H         0.1824858818   -1.1300784792    1.1297210869
H        -0.1453239690    1.3109043227   -0.7178115870
$end

$comment
Violaxanthin geom opt
$end

$rem
JOBTYPE SP
BASIS cc-pVDZ
METHOD CAM-B3LYP
CIS_N_ROOTS 15
cis_singlets true
cis_triplets false
state_analysis true
molden_format true
nto_pairs 2
SOLVENT_METHOD smd
MEM_TOTAL 64000
THREADS 32
$end

$smx
solvent methanol
$end

--------------------------------------------------------------
 ----------------------------------------------------------------
             Standard Nuclear Orientation (Angstroms)
    I     Atom           X                Y                Z
 ----------------------------------------------------------------
    1      O      11.2556877009     1.3252791884    -0.7248651144
    2      O     -11.2805512239    -0.9372906212     1.0008985038
    3      O      15.0472597816    -0.1734714874     0.2791145783
    4      O     -15.4914999740    -1.2847883165     1.0492302224
    5      C      11.5625444601     0.0347689395    -0.1807776403
    6      C     -11.5635315159    -0.0549605124    -0.1007630884
    7      C      12.1186608355     1.2750568868     0.4363573017
    8      C     -12.0955453960     0.2213492343     1.2678124307
    9      C      12.4333307322    -0.8416080688    -1.1002497313
   10      C     -12.4614067482    -0.6771580104    -1.2007244630
   11      C      13.5332479797     1.7361295053     0.1507359785
   12      C     -13.5266121730    -0.1111425981     1.6068082186
   13      C      13.6268951064    -0.0289867289    -1.6369619963
   14      C     -13.9242536279    -0.7946472572    -0.7384928831
   15      C      14.4186439988     0.7511152678    -0.6051843987
   16      C     -14.1117798499    -1.1855530693     0.7150800164
   17      C      11.5242704206     1.8591790012     1.6886988562
   18      C     -11.4723437575     1.2557973859     2.1622616368
   19      C      10.4128149313    -0.6631429448     0.4570003326
   20      C     -10.3772234319     0.6962386242    -0.5946059031
   21      C      11.5868128589    -1.2689109913    -2.3052096155
   22      C      12.8962069346    -2.0969310924    -0.3499229885
   23      C     -12.4516249435     0.1772045129    -2.4728105785
   24      C     -11.8877645447    -2.0577641303    -1.5365742623
   25      C       9.1300802180    -0.2859779348     0.2871857097
   26      C      -9.1068382491     0.3662436693    -0.2875002449
   27      C       7.9593061920    -0.9453604453     0.8448706100
   28      C      -7.9089933758     1.0503035275    -0.7507062875
   29      C       8.1621582196    -2.1448059297     1.7188794078
   30      C      -8.0665170080     2.2359252224    -1.6526467050
   31      C       6.7327114946    -0.4337940937     0.5227983557
   32      C      -6.6999640728     0.5645039870    -0.3355752054
   33      C       5.4438402903    -0.9199561819     0.9249320392
   34      C      -5.3960357366     1.0637210183    -0.6670300802
   35      C       4.2833531325    -0.3327275194     0.5149165576
   36      C      -4.2498993978     0.4958396681    -0.1941921203
   37      C       2.9468678285    -0.7582273071     0.8544237245
   38      C      -2.9057787998     0.9310496209    -0.4893079941
   39      C       2.7738239772    -1.9443828903     1.7550667328
   40      C      -2.7142328862     2.1118261802    -1.3936828246
   41      C       1.8972641115    -0.0504166731     0.3215010894
   42      C      -1.8660940806     0.2316672553     0.0736532221
   43      C       0.5005696304    -0.2920103509     0.5003345442
   44      C      -0.4676516804     0.4744169806    -0.0885154828
   45      H      13.4488693006     2.6741409890    -0.4242360889
   46      H      14.0306645979     1.9998999265     1.0977622770
   47      H     -13.5781072849    -0.4210631083     2.6644548548
   48      H     -14.1387242665     0.8021486842     1.5103082431
   49      H      13.2570962397     0.6960757687    -2.3797777344
   50      H      14.3049150433    -0.7130215432    -2.1730713851
   51      H     -14.4403564932    -1.5225972662    -1.3882384704
   52      H     -14.4337264241     0.1753535937    -0.8802966099
   53      H      15.1999617043     1.3272930768    -1.1351656615
   54      H     -13.6077581937    -2.1473116157     0.9186004072
   55      H      12.0660846005     1.4909663499     2.5743468644
   56      H      11.6231077273     2.9569548886     1.6712470515
   57      H      10.4619083331     1.6076566452     1.7989864185
   58      H     -10.4290413343     1.4590225301     1.8904206638
   59      H     -12.0394973506     2.1983409644     2.1071246047
   60      H     -11.5017282431     0.9101641045     3.2080935499
   61      H      10.6600419234    -1.5407165154     1.0597436760
   62      H     -10.5875446737     1.5453201415    -1.2490044230
   63      H      11.1681733030    -0.3946840334    -2.8298246753
   64      H      12.2067116125    -1.8283699268    -3.0244653272
   65      H      10.7511354161    -1.9197380075    -2.0035332373
   66      H      12.0539521275    -2.7776800479    -0.1522546469
   67      H      13.6261251450    -2.6518290426    -0.9610067307
   68      H      13.3801526811    -1.8510187503     0.6043746937
   69      H     -12.7406136173     1.2212244520    -2.2706852032
   70      H     -13.1786857211    -0.2334890386    -3.1918123442
   71      H     -11.4664569071     0.1802750543    -2.9638838025
   72      H     -11.9630614914    -2.7488950652    -0.6843613012
   73      H     -12.4318206602    -2.4997000955    -2.3865176753
   74      H     -10.8247312041    -1.9848587892    -1.8190969445
   75      H      15.5868344173     0.3431340406     0.8943755214
   76      H     -15.8608636559    -2.0144946062     0.5317323858
   77      H       8.9332873605     0.5957732558    -0.3329570230
   78      H      -8.9450414896    -0.4918665814     0.3741286420
   79      H       8.8044875732    -1.8969518920     2.5802352488
   80      H       8.6764690044    -2.9498133311     1.1672302639
   81      H       7.2211276644    -2.5528267564     2.1080502815
   82      H      -8.6805544019     3.0162151581    -1.1726538633
   83      H      -8.5889453028     1.9554681816    -2.5826772257
   84      H      -7.1076125803     2.6896976191    -1.9317640240
   85      H       6.7233665213     0.4498700895    -0.1275584754
   86      H      -6.7203211106    -0.3118147406     0.3242478570
   87      H       5.3955127556    -1.7982603321     1.5747959651
   88      H      -5.3235313803     1.9330026362    -1.3262895232
   89      H       4.3550567434     0.5438225386    -0.1409255621
   90      H      -4.3399595665    -0.3741707344     0.4678755336
   91      H       3.2138335095    -2.8489943309     1.3031022656
   92      H       3.2947216842    -1.7878214912     2.7139711127
   93      H       1.7215418961    -2.1590090085     1.9776459647
   94      H      -3.2018416538     3.0089653122    -0.9776010005
   95      H      -3.1769685818     1.9313133159    -2.3780646036
   96      H      -1.6574981992     2.3525054731    -1.5609664309
   97      H       2.1536626472     0.7992470743    -0.3233054056
   98      H      -2.1320800188    -0.6161815782     0.7169710918
   99      H       0.1824858818    -1.1300784792     1.1297210869
  100      H      -0.1453239690     1.3109043227    -0.7178115870
 ----------------------------------------------------------------
 Nuclear Repulsion Energy =        4385.31657776 hartrees
 There are      164 alpha and      164 beta electrons
 Requested basis set is cc-pVDZ
 There are 432 shells and 896 basis functions

 Total QAlloc Memory Limit  64000 MB
 Mega-Array Size       188 MB
 MEM_STATIC part       192 MB
 
 Citation of the SMD model:
 Marenich, A.V.; Cramer, C.J.; Truhlar, D.G.
 J. Phys. Chem. B 2009, 113, 6378-6396.
 iSolventCode=         119
 Solvent: methanol                                                        
 
 vradii
            1           2           3           4           5           6
    1   1.5200000   1.5200000   1.5200000   1.5200000   1.8500000   1.8500000
            7           8           9          10          11          12
    1   1.8500000   1.8500000   1.8500000   1.8500000   1.8500000   1.8500000
           13          14          15          16          17          18
    1   1.8500000   1.8500000   1.8500000   1.8500000   1.8500000   1.8500000
           19          20          21          22          23          24
    1   1.8500000   1.8500000   1.8500000   1.8500000   1.8500000   1.8500000
           25          26          27          28          29          30
    1   1.8500000   1.8500000   1.8500000   1.8500000   1.8500000   1.8500000
           31          32          33          34          35          36
    1   1.8500000   1.8500000   1.8500000   1.8500000   1.8500000   1.8500000
           37          38          39          40          41          42
    1   1.8500000   1.8500000   1.8500000   1.8500000   1.8500000   1.8500000
           43          44          45          46          47          48
    1   1.8500000   1.8500000   1.2000000   1.2000000   1.2000000   1.2000000
           49          50          51          52          53          54
    1   1.2000000   1.2000000   1.2000000   1.2000000   1.2000000   1.2000000
           55          56          57          58          59          60
    1   1.2000000   1.2000000   1.2000000   1.2000000   1.2000000   1.2000000
           61          62          63          64          65          66
    1   1.2000000   1.2000000   1.2000000   1.2000000   1.2000000   1.2000000
           67          68          69          70          71          72
    1   1.2000000   1.2000000   1.2000000   1.2000000   1.2000000   1.2000000
           73          74          75          76          77          78
    1   1.2000000   1.2000000   1.2000000   1.2000000   1.2000000   1.2000000
           79          80          81          82          83          84
    1   1.2000000   1.2000000   1.2000000   1.2000000   1.2000000   1.2000000
           85          86          87          88          89          90
    1   1.2000000   1.2000000   1.2000000   1.2000000   1.2000000   1.2000000
           91          92          93          94          95          96
    1   1.2000000   1.2000000   1.2000000   1.2000000   1.2000000   1.2000000
           97          98          99         100
    1   1.2000000   1.2000000   1.2000000   1.2000000
 Changing PCM_VDW_RADII to SMD_RADIUS
 Discretize the solute cavity surface with Lebedev spheres
	Using 110 Lebedev grid points for each H atom
	Using 194 Lebedev grid points for other atoms
	Atomic van der Waals radii will be scaled by 1.20
 Remove points where switching function is < 1.0e-08
 Keep 6566 surface tesserae and discard 8130 interior tesserae
 Molecular Surface Area = 726.483 Angst**2
 A cutoff of  1.0D-11 yielded  29336 shell pairs
 There are    121012 function pairs (    132661 Cartesian)
 Smallest overlap matrix eigenvalue = 3.83E-04

 Scale SEOQF with 1.000000e-02/1.000000e-01/1.000000e-01

 Standard Electronic Orientation quadrupole field applied
 Nucleus-field energy     =     0.0000001074 hartrees
 Guess from superposition of atomic densities
 Warning:  Energy on first SCF cycle will be non-variational
 SAD guess density has 328.000000 electrons

 -----------------------------------------------------------------------
  General SCF calculation program by
  Eric Jon Sundstrom, Paul Horn, Yuezhi Mao, Dmitri Zuev, Alec White,
  David Stuck, Shaama M.S., Shane Yost, Joonho Lee, David Small,
  Daniel Levine, Susi Lehtola, Hugh Burton, Evgeny Epifanovsky,
  Bang C. Huynh
 -----------------------------------------------------------------------
 Exchange:     0.1900 Hartree-Fock + 0.3500 B88 + 0.4600 muB88 + LR-HF
 Correlation:  0.1900 VWN5 + 0.8100 LYP
 Using SG-1 standard quadrature grid
 
 Citation of the SMD model:
 Marenich, A.V.; Cramer, C.J.; Truhlar, D.G.
 J. Phys. Chem. B 2009, 113, 6378-6396.
 iSolventCode=         119
 Solvent: methanol                                                        
 
 vradii
            1           2           3           4           5           6
    1   1.5200000   1.5200000   1.5200000   1.5200000   1.8500000   1.8500000
            7           8           9          10          11          12
    1   1.8500000   1.8500000   1.8500000   1.8500000   1.8500000   1.8500000
           13          14          15          16          17          18
    1   1.8500000   1.8500000   1.8500000   1.8500000   1.8500000   1.8500000
           19          20          21          22          23          24
    1   1.8500000   1.8500000   1.8500000   1.8500000   1.8500000   1.8500000
           25          26          27          28          29          30
    1   1.8500000   1.8500000   1.8500000   1.8500000   1.8500000   1.8500000
           31          32          33          34          35          36
    1   1.8500000   1.8500000   1.8500000   1.8500000   1.8500000   1.8500000
           37          38          39          40          41          42
    1   1.8500000   1.8500000   1.8500000   1.8500000   1.8500000   1.8500000
           43          44          45          46          47          48
    1   1.8500000   1.8500000   1.2000000   1.2000000   1.2000000   1.2000000
           49          50          51          52          53          54
    1   1.2000000   1.2000000   1.2000000   1.2000000   1.2000000   1.2000000
           55          56          57          58          59          60
    1   1.2000000   1.2000000   1.2000000   1.2000000   1.2000000   1.2000000
           61          62          63          64          65          66
    1   1.2000000   1.2000000   1.2000000   1.2000000   1.2000000   1.2000000
           67          68          69          70          71          72
    1   1.2000000   1.2000000   1.2000000   1.2000000   1.2000000   1.2000000
           73          74          75          76          77          78
    1   1.2000000   1.2000000   1.2000000   1.2000000   1.2000000   1.2000000
           79          80          81          82          83          84
    1   1.2000000   1.2000000   1.2000000   1.2000000   1.2000000   1.2000000
           85          86          87          88          89          90
    1   1.2000000   1.2000000   1.2000000   1.2000000   1.2000000   1.2000000
           91          92          93          94          95          96
    1   1.2000000   1.2000000   1.2000000   1.2000000   1.2000000   1.2000000
           97          98          99         100
    1   1.2000000   1.2000000   1.2000000   1.2000000
 using 32 threads for integral computing
 -------------------------------------------------------
 OpenMP Integral computing Module                
 Release: version 1.0, May 2013, Q-Chem Inc. Pittsburgh 
 -------------------------------------------------------
 A restricted SCF calculation will be
 performed using DIIS
 SCF converges when DIIS error is below 1.0e-08
 ---------------------------------------
  Cycle       Energy         DIIS error
 ---------------------------------------
    1   -1870.0767163582      2.50e-02  
    2   -1857.3397418215      2.13e-03  
    3   -1857.5313670774      1.80e-03  
    4   -1857.8032692122      3.14e-04  
    5   -1857.8103095494      1.28e-04  
    6   -1857.8118388104      3.35e-05  
    7   -1857.8119698638      1.03e-05  
    8   -1857.8119941563      3.96e-06  
    9   -1857.8120005663      1.72e-06  
   10   -1857.8120016405      3.62e-07  
   11   -1857.8120015376      1.57e-07  
   12   -1857.8120016216      3.33e-08  
   13   -1857.8120017072      1.96e-08  
   14   -1857.8120016809      6.37e-09  Convergence criterion met
 ---------------------------------------
 SCF time:   CPU 9428.01s  wall 612.00s 
(3)  G-ENP(liq) elect-nuc-pol free energy of system    -1857.812001681 a.u.
(4)  G-CDS(liq) cavity-dispersion-solvent structure 
     free energy                                               -5.4743 kcal/mol
(6)  G-S(liq) free energy of system                    -1857.820725542 a.u.
 SCF   energy in the final basis set =    -1857.8207255420
 Total energy in the final basis set =    -1857.8207255420
 
 Direct TDDFT/TDA calculation will be performed
 Exchange:     0.1900 Hartree-Fock + 0.3500 B88 + 0.4600 muB88 + LR-HF
 Correlation:  0.1900 VWN5 + 0.8100 LYP
 Using SG-1 standard quadrature grid
 Singlet excitation energies requested
 Adding PCM contribution to the XC response (LR-PCM)
 CIS energy converged when residual is below 10e- 6
 ---------------------------------------------------
 Iter    Rts Conv    Rts Left    Ttl Dev     Max Dev
 ---------------------------------------------------
   1         0          15      0.002318    0.000363
   2         0          15      0.000670    0.000087
   3         0          15      0.000353    0.000055
   4         0          15      0.000197    0.000048
   5         4          11      0.000097    0.000027
   6         7           8      0.000079    0.000023
   7         7           8      0.000048    0.000020
   8        10           5      0.000035    0.000018
   9        12           3      0.000027    0.000016
  10        12           3      0.000021    0.000013
  11        13           2      0.000018    0.000011
  12        14           1      0.000013    0.000007
  13        14           1      0.000012    0.000006
  14        14           1      0.000011    0.000005
  15        14           1      0.000011    0.000006
  16        14           1      0.000011    0.000005
  17        14           1      0.000010    0.000004
  18        14           1      0.000008    0.000003
  19        14           1      0.000007    0.000002
  20        14           1      0.000007    0.000001
  21        15           0      0.000006    0.000001    Roots Converged
 ---------------------------------------------------
 
 ---------------------------------------------------
         TDDFT/TDA Excitation Energies              
 ---------------------------------------------------

 Excited state   1: excitation energy (eV) =    2.7086
 Total energy for state  1:                 -1857.72118754 au
    Multiplicity: Singlet
    Trans. Mom.:  8.3103 X  -1.3150 Y   1.0236 Z
    Strength   :     4.7671136953
    D(  163) --> V(    2) amplitude =  0.2147
    D(  164) --> V(    1) amplitude =  0.9661

 Excited state   2: excitation energy (eV) =    3.8786
 Total energy for state  2:                 -1857.67819128 au
    Multiplicity: Singlet
    Trans. Mom.:  0.0188 X   0.0079 Y   0.0798 Z
    Strength   :     0.0006446432
    D(  162) --> V(    2) amplitude = -0.2261
    D(  163) --> V(    1) amplitude =  0.9082
    D(  164) --> V(    2) amplitude = -0.2793

 Excited state   3: excitation energy (eV) =    4.1035
 Total energy for state  3:                 -1857.66992527 au
    Multiplicity: Singlet
    Trans. Mom.: -0.0137 X   0.0252 Y   0.1591 Z
    Strength   :     0.0026268158
    D(  163) --> V(    1) amplitude =  0.3000
    D(  164) --> V(    2) amplitude =  0.9138

 Excited state   4: excitation energy (eV) =    4.6688
 Total energy for state  4:                 -1857.64915100 au
    Multiplicity: Singlet
    Trans. Mom.: -0.3286 X  -0.2984 Y   0.2398 Z
    Strength   :     0.0291104364
    D(  162) --> V(    1) amplitude =  0.8496
    D(  164) --> V(    3) amplitude = -0.4186

 Excited state   5: excitation energy (eV) =    5.1361
 Total energy for state  5:                 -1857.63197806 au
    Multiplicity: Singlet
    Trans. Mom.: -2.0720 X  -0.6583 Y   0.5514 Z
    Strength   :     0.6330173041
    D(  162) --> V(    1) amplitude =  0.3125
    D(  163) --> V(    2) amplitude = -0.5898
    D(  164) --> V(    3) amplitude =  0.6819

 Excited state   6: excitation energy (eV) =    5.4149
 Total energy for state  6:                 -1857.62173304 au
    Multiplicity: Singlet
    Trans. Mom.:  0.6766 X  -0.5624 Y   0.4290 Z
    Strength   :     0.1271068935
    D(  162) --> V(    1) amplitude =  0.3093
    D(  163) --> V(    2) amplitude =  0.7333
    D(  164) --> V(    3) amplitude =  0.5190

 Excited state   7: excitation energy (eV) =    5.4768
 Total energy for state  7:                 -1857.61945799 au
    Multiplicity: Singlet
    Trans. Mom.:  0.0092 X  -0.0245 Y  -0.0295 Z
    Strength   :     0.0002087003
    D(  155) --> V(    1) amplitude = -0.2222
    D(  161) --> V(    1) amplitude =  0.7800
    D(  164) --> V(    4) amplitude =  0.3876

 Excited state   8: excitation energy (eV) =    5.9730
 Total energy for state  8:                 -1857.60122203 au
    Multiplicity: Singlet
    Trans. Mom.:  0.0776 X   0.1485 Y  -0.1092 Z
    Strength   :     0.0058548921
    D(  154) --> V(    1) amplitude =  0.2456
    D(  157) --> V(    1) amplitude = -0.2200
    D(  158) --> V(    1) amplitude =  0.6196
    D(  159) --> V(    1) amplitude = -0.3975
    D(  161) --> V(    2) amplitude =  0.3265
    D(  164) --> V(    7) amplitude = -0.2221

 Excited state   9: excitation energy (eV) =    5.9862
 Total energy for state  9:                 -1857.60073847 au
    Multiplicity: Singlet
    Trans. Mom.: -0.0232 X   0.0145 Y   0.0179 Z
    Strength   :     0.0001564543
    D(  155) --> V(    1) amplitude = -0.2648
    D(  161) --> V(    1) amplitude = -0.2254
    D(  162) --> V(    2) amplitude =  0.5177
    D(  163) --> V(    3) amplitude =  0.4982
    D(  164) --> V(    4) amplitude =  0.4177

 Excited state  10: excitation energy (eV) =    6.0679
 Total energy for state 10:                 -1857.59773549 au
    Multiplicity: Singlet
    Trans. Mom.: -0.0457 X   0.0600 Y   0.0377 Z
    Strength   :     0.0010578806
    D(  156) --> V(    1) amplitude =  0.5033
    D(  156) --> V(    2) amplitude = -0.3253
    D(  160) --> V(    1) amplitude =  0.5783
    D(  160) --> V(    2) amplitude = -0.3223

 Excited state  11: excitation energy (eV) =    6.0781
 Total energy for state 11:                 -1857.59736006 au
    Multiplicity: Singlet
    Trans. Mom.: -0.0440 X  -0.0439 Y  -0.0576 Z
    Strength   :     0.0010706792
    D(  157) --> V(    1) amplitude =  0.4687
    D(  157) --> V(    2) amplitude =  0.3252
    D(  158) --> V(    1) amplitude =  0.4415
    D(  159) --> V(    1) amplitude =  0.4106
    D(  159) --> V(    2) amplitude =  0.2618

 Excited state  12: excitation energy (eV) =    6.1784
 Total energy for state 12:                 -1857.59367325 au
    Multiplicity: Singlet
    Trans. Mom.: -0.0029 X  -0.0351 Y  -0.0646 Z
    Strength   :     0.0008194615
    D(  155) --> V(    1) amplitude =  0.2486
    D(  158) --> V(    2) amplitude =  0.2164
    D(  161) --> V(    1) amplitude =  0.3907
    D(  162) --> V(    2) amplitude =  0.6857
    D(  164) --> V(    4) amplitude = -0.2871

 Excited state  13: excitation energy (eV) =    6.2975
 Total energy for state 13:                 -1857.58929548 au
    Multiplicity: Singlet
    Trans. Mom.: -0.0026 X  -0.0428 Y  -0.0676 Z
    Strength   :     0.0009886668
    D(  153) --> V(    1) amplitude =  0.3029
    D(  155) --> V(    1) amplitude =  0.5442
    D(  163) --> V(    3) amplitude =  0.4614

 Excited state  14: excitation energy (eV) =    6.4176
 Total energy for state 14:                 -1857.58488175 au
    Multiplicity: Singlet
    Trans. Mom.: -0.0067 X   0.0121 Y   0.0051 Z
    Strength   :     0.0000343744
    D(  163) --> V(    3) amplitude = -0.5884
    D(  164) --> V(    4) amplitude =  0.6415

 Excited state  15: excitation energy (eV) =    6.4373
 Total energy for state 15:                 -1857.58415942 au
    Multiplicity: Singlet
    Trans. Mom.:  0.0138 X   0.0614 Y  -0.0188 Z
    Strength   :     0.0006794743
    D(  145) --> V(    1) amplitude =  0.4965
    D(  160) --> V(    1) amplitude = -0.2175
    D(  164) --> V(    8) amplitude = -0.4424
    D(  164) --> V(    9) amplitude =  0.2430
    D(  164) --> V(   10) amplitude = -0.2216
 
 ---------------------------------------------------
  SETman timing summary (seconds)
  CPU time             25431.88s
  System time              0.03s
  Wall time             4112.92s
 Created directory /tmpu/qchem-scratch/qchem20844/plots
================================================================================
                             Excited State Analysis
================================================================================

  Ground State (Reference) :
  -------------------------
    NOs
      Occupation of frontier NOs:
         0.0000   0.0000   2.0000   2.0000
      Number of electrons: 328.000000
      Number of unpaired electrons: n_u = -0.00000, n_u,nl =  0.00000
    
    Mulliken Population Analysis
     Atom      Charge (e)
    ---------------------
      1 O       -0.341033
      2 O       -0.334647
      3 O       -0.303276
      4 O       -0.317606
      5 C        0.127262
      6 C        0.114757
      7 C       -0.118951
      8 C       -0.105191
      9 C       -0.273959
     10 C       -0.285732
     11 C        0.117448
     12 C        0.118711
     13 C        0.087672
     14 C        0.103109
     15 C        0.078305
     16 C        0.061380
     17 C        0.061176
     18 C        0.062578
     19 C       -0.048155
     20 C       -0.046214
     21 C        0.056647
     22 C        0.050987
     23 C        0.050100
     24 C        0.055634
     25 C        0.055750
     26 C        0.051599
     27 C       -0.143933
     28 C       -0.141615
     29 C        0.036793
     30 C        0.036138
     31 C        0.009640
     32 C        0.009407
     33 C       -0.028192
     34 C       -0.027766
     35 C        0.016969
     36 C        0.016381
     37 C       -0.143001
     38 C       -0.141465
     39 C        0.040455
     40 C        0.040679
     41 C        0.004990
     42 C        0.004231
     43 C       -0.007224
     44 C       -0.006881
     45 H        0.028033
     46 H        0.015610
     47 H        0.019227
     48 H        0.027481
     49 H        0.011023
     50 H        0.007043
     51 H        0.002807
     52 H       -0.001213
     53 H       -0.002727
     54 H        0.000770
     55 H        0.044333
     56 H        0.036018
     57 H        0.026343
     58 H        0.027213
     59 H        0.041250
     60 H        0.036312
     61 H        0.008264
     62 H        0.009648
     63 H        0.016427
     64 H        0.020206
     65 H        0.019319
     66 H        0.023608
     67 H        0.018881
     68 H        0.011424
     69 H        0.029708
     70 H        0.023558
     71 H        0.024821
     72 H        0.020087
     73 H        0.022081
     74 H        0.020195
     75 H        0.176584
     76 H        0.176647
     77 H       -0.028916
     78 H       -0.028528
     79 H        0.050792
     80 H        0.051585
     81 H        0.035427
     82 H        0.051525
     83 H        0.051659
     84 H        0.035368
     85 H       -0.017244
     86 H       -0.017230
     87 H       -0.001065
     88 H       -0.001205
     89 H       -0.015382
     90 H       -0.015594
     91 H        0.052958
     92 H        0.052364
     93 H        0.036128
     94 H        0.052877
     95 H        0.052848
     96 H        0.035841
     97 H       -0.014099
     98 H       -0.014239
     99 H       -0.000508
    100 H       -0.000303
    ---------------------
     Sum:       -0.000000
    
    Multipole moment analysis of the density matrix
      Molecular charge:                      -0.000000
      Number of electrons:                   328.000000
        Center of electronic charge [Ang]: [  0.004146,  -0.045903,  -0.014937]
      Total nuclear charge:                  328.000000
        Center of nuclear charge [Ang]:    [  0.005006,  -0.044791,  -0.015103]
      Dipole moment [D]:                     2.230814
        Cartesian components [D]:          [  1.355473,   1.752254,  -0.262355]
      RMS size of the density [Ang]:        10.398609
        Cartesian components [Ang]:        [ 10.235313,   1.313473,   1.282278]
    

  ----------------------------------------------------------------------------
                  Analysis of Unrelaxed Density Matrices
  ----------------------------------------------------------------------------

  Singlet 1 :
  -------------------------
    NOs
      Occupation of frontier NOs:
         0.0464   0.9342   1.0658   1.9536
      Number of electrons: 328.000000
      Number of unpaired electrons: n_u =  2.00000, n_u,nl =  1.99955
      NO participation ratio (PR_NO):  2.285774
    
    NDOs
      Leading detachment eigenvalues:
        -0.9342  -0.0464
      Leading attachment eigenvalues:
         0.9342   0.0464
      Number of detached / attached electrons: p_D =  1.0000, p_A =  1.0000
      Number of involved orbitals: PR_D =  1.142887, PR_A =  1.142887
    
    Mulliken Population Analysis
     Atom      Charge (e)              h+              e-           Del q
    ---------------------------------------------------------------------
      1 O       -0.340479        0.000871       -0.000318        0.000554
      2 O       -0.334112        0.000871       -0.000336        0.000535
      3 O       -0.303251        0.000034       -0.000009        0.000025
      4 O       -0.317597        0.000019       -0.000010        0.000009
      5 C        0.127274        0.001423       -0.001411        0.000012
      6 C        0.114523        0.001425       -0.001659       -0.000234
      7 C       -0.118049        0.003651       -0.002749        0.000902
      8 C       -0.104333        0.003542       -0.002684        0.000858
      9 C       -0.273638        0.001413       -0.001093        0.000321
     10 C       -0.285395        0.001507       -0.001170        0.000337
     11 C        0.117495        0.000371       -0.000325        0.000047
     12 C        0.118754        0.000362       -0.000320        0.000042
     13 C        0.087642        0.000241       -0.000271       -0.000030
     14 C        0.103057        0.000204       -0.000257       -0.000052
     15 C        0.078397        0.000145       -0.000053        0.000092
     16 C        0.061404        0.000061       -0.000036        0.000024
     17 C        0.061315        0.000497       -0.000358        0.000139
     18 C        0.062735        0.000516       -0.000359        0.000157
     19 C       -0.047487        0.040992       -0.040324        0.000668
     20 C       -0.045855        0.040292       -0.039933        0.000359
     21 C        0.056903        0.000510       -0.000254        0.000256
     22 C        0.051044        0.000124       -0.000066        0.000057
     23 C        0.050127        0.000276       -0.000249        0.000027
     24 C        0.055925        0.000396       -0.000104        0.000291
     25 C        0.052223        0.006314       -0.009841       -0.003527
     26 C        0.048141        0.006289       -0.009747       -0.003458
     27 C       -0.139919        0.061535       -0.057522        0.004013
     28 C       -0.138559        0.061047       -0.057990        0.003056
     29 C        0.037455        0.001815       -0.001153        0.000662
     30 C        0.036789        0.001810       -0.001159        0.000651
     31 C        0.015096        0.025171       -0.019715        0.005456
     32 C        0.014710        0.024997       -0.019694        0.005303
     33 C       -0.029307        0.077275       -0.078390       -0.001114
     34 C       -0.029883        0.076716       -0.078833       -0.002117
     35 C        0.006229        0.035447       -0.046186       -0.010740
     36 C        0.005651        0.035347       -0.046077       -0.010730
     37 C       -0.141868        0.082725       -0.081592        0.001133
     38 C       -0.141308        0.082312       -0.082155        0.000158
     39 C        0.040900        0.001864       -0.001420        0.000445
     40 C        0.041101        0.001845       -0.001422        0.000422
     41 C        0.012254        0.065126       -0.057863        0.007264
     42 C        0.011459        0.064995       -0.057768        0.007228
     43 C       -0.014895        0.074853       -0.082523       -0.007671
     44 C       -0.015011        0.074707       -0.082837       -0.008130
     45 H        0.028044        0.000311       -0.000300        0.000012
     46 H        0.015618        0.000040       -0.000032        0.000008
     47 H        0.019313        0.000401       -0.000315        0.000086
     48 H        0.027483        0.000048       -0.000045        0.000003
     49 H        0.011010        0.000011       -0.000025       -0.000014
     50 H        0.007088        0.000190       -0.000144        0.000045
     51 H        0.002839        0.000135       -0.000103        0.000032
     52 H       -0.001213        0.000007       -0.000007       -0.000001
     53 H       -0.002744        0.000014       -0.000031       -0.000017
     54 H        0.000764        0.000005       -0.000011       -0.000006
     55 H        0.044312        0.000124       -0.000146       -0.000022
     56 H        0.036007        0.000047       -0.000058       -0.000011
     57 H        0.026448        0.000138       -0.000033        0.000105
     58 H        0.027302        0.000151       -0.000063        0.000088
     59 H        0.041232        0.000119       -0.000137       -0.000018
     60 H        0.036309        0.000049       -0.000052       -0.000003
     61 H        0.008069        0.000431       -0.000626       -0.000195
     62 H        0.009448        0.000422       -0.000623       -0.000201
     63 H        0.016438        0.000058       -0.000046        0.000011
     64 H        0.020165        0.000024       -0.000065       -0.000041
     65 H        0.019234        0.000166       -0.000251       -0.000085
     66 H        0.023214        0.000118       -0.000512       -0.000394
     67 H        0.018868        0.000026       -0.000040       -0.000014
     68 H        0.011443        0.000030       -0.000011        0.000019
     69 H        0.029749        0.000033        0.000008        0.000041
     70 H        0.023468        0.000039       -0.000130       -0.000090
     71 H        0.024474        0.000212       -0.000558       -0.000346
     72 H        0.020076        0.000026       -0.000037       -0.000011
     73 H        0.022099        0.000054       -0.000036        0.000018
     74 H        0.020139        0.000170       -0.000226       -0.000056
     75 H        0.176576        0.000008       -0.000016       -0.000008
     76 H        0.176638        0.000004       -0.000012       -0.000009
     77 H       -0.028997        0.000109       -0.000189       -0.000081
     78 H       -0.028609        0.000112       -0.000193       -0.000082
     79 H        0.051582        0.003099       -0.002309        0.000790
     80 H        0.052254        0.003347       -0.002678        0.000669
     81 H        0.035412        0.000063       -0.000078       -0.000015
     82 H        0.052239        0.003114       -0.002400        0.000714
     83 H        0.052357        0.003232       -0.002535        0.000697
     84 H        0.035353        0.000060       -0.000076       -0.000015
     85 H       -0.017253        0.000192       -0.000201       -0.000009
     86 H       -0.017239        0.000192       -0.000201       -0.000009
     87 H       -0.001270        0.000664       -0.000868       -0.000205
     88 H       -0.001416        0.000661       -0.000872       -0.000212
     89 H       -0.015513        0.000225       -0.000356       -0.000131
     90 H       -0.015724        0.000226       -0.000356       -0.000130
     91 H        0.054379        0.004422       -0.003001        0.001421
     92 H        0.053853        0.004165       -0.002676        0.001489
     93 H        0.036047        0.000071       -0.000152       -0.000081
     94 H        0.054292        0.004271       -0.002855        0.001415
     95 H        0.054248        0.004274       -0.002873        0.001400
     96 H        0.035772        0.000065       -0.000134       -0.000069
     97 H       -0.014067        0.000411       -0.000379        0.000032
     98 H       -0.014208        0.000411       -0.000380        0.000031
     99 H       -0.000631        0.000537       -0.000660       -0.000123
    100 H       -0.000430        0.000535       -0.000661       -0.000127
    ---------------------------------------------------------------------
     Sum:       -0.000000        1.000000       -1.000000       -0.000000
    
    Multipole moment analysis of the density matrix
      Molecular charge:                      -0.000000
      Number of electrons:                   328.000000
        Center of electronic charge [Ang]: [  0.004073,  -0.045896,  -0.014946]
      Total nuclear charge:                  328.000000
        Center of nuclear charge [Ang]:    [  0.005006,  -0.044791,  -0.015103]
      Dipole moment [D]:                     2.291523
        Cartesian components [D]:          [  1.469210,   1.741019,  -0.247694]
      RMS size of the density [Ang]:        10.398499
        Cartesian components [Ang]:        [ 10.235194,   1.313498,   1.282301]
    
    Exciton analysis of the difference density matrix
      <r_h> [Ang]:                  [  0.038327,   0.072666,   0.131542]
      <r_e> [Ang]:                  [  0.014648,   0.075005,   0.128489]
      |<r_e - r_h>| [Ang]:            0.023990
      Hole size [Ang]:                5.883574
        Cartesian components [Ang]: [  5.712188,   1.029590,   0.962967]
      Electron size [Ang]:            5.819253
        Cartesian components [Ang]: [  5.642244,   1.039814,   0.973439]

  Singlet 2 :
  -------------------------
    NOs
      Occupation of frontier NOs:
         0.1351   0.8424   1.1576   1.8649
      Number of electrons: 328.000000
      Number of unpaired electrons: n_u =  2.00000, n_u,nl =  2.02994
      NO participation ratio (PR_NO):  2.747242
    
    NDOs
      Leading detachment eigenvalues:
        -0.8424  -0.1351
      Leading attachment eigenvalues:
         0.8424   0.1351
      Number of detached / attached electrons: p_D =  1.0000, p_A =  1.0000
      Number of involved orbitals: PR_D =  1.373621, PR_A =  1.373621
    
    Mulliken Population Analysis
     Atom      Charge (e)              h+              e-           Del q
    ---------------------------------------------------------------------
      1 O       -0.339616        0.001649       -0.000232        0.001417
      2 O       -0.333247        0.001647       -0.000248        0.001399
      3 O       -0.303214        0.000069       -0.000007        0.000062
      4 O       -0.317606        0.000006       -0.000005        0.000000
      5 C        0.128776        0.002443       -0.000929        0.001514
      6 C        0.116039        0.002404       -0.001123        0.001282
      7 C       -0.114880        0.006108       -0.002037        0.004071
      8 C       -0.101276        0.005926       -0.002010        0.003916
      9 C       -0.272571        0.002188       -0.000800        0.001388
     10 C       -0.284264        0.002329       -0.000861        0.001468
     11 C        0.117784        0.000557       -0.000220        0.000336
     12 C        0.119027        0.000535       -0.000219        0.000316
     13 C        0.087801        0.000312       -0.000184        0.000129
     14 C        0.103191        0.000255       -0.000173        0.000082
     15 C        0.078560        0.000290       -0.000035        0.000255
     16 C        0.061470        0.000109       -0.000019        0.000090
     17 C        0.061793        0.000872       -0.000254        0.000617
     18 C        0.063212        0.000892       -0.000258        0.000634
     19 C       -0.018642        0.060631       -0.031117        0.029513
     20 C       -0.017574        0.059737       -0.031097        0.028640
     21 C        0.057378        0.000914       -0.000184        0.000731
     22 C        0.051063        0.000119       -0.000043        0.000076
     23 C        0.050272        0.000351       -0.000179        0.000172
     24 C        0.056314        0.000760       -0.000080        0.000680
     25 C        0.067470        0.018406       -0.006686        0.011720
     26 C        0.063164        0.018253       -0.006689        0.011564
     27 C       -0.126677        0.067030       -0.049774        0.017256
     28 C       -0.125246        0.066820       -0.050450        0.016369
     29 C        0.037789        0.001876       -0.000880        0.000996
     30 C        0.037133        0.001886       -0.000891        0.000995
     31 C        0.058715        0.065069       -0.015994        0.049075
     32 C        0.058094        0.064773       -0.016086        0.048687
     33 C       -0.060429        0.045072       -0.077309       -0.032237
     34 C       -0.060656        0.045044       -0.077934       -0.032890
     35 C        0.053776        0.080900       -0.044094        0.036806
     36 C        0.053115        0.080947       -0.044212        0.036734
     37 C       -0.209121        0.025957       -0.092076       -0.066120
     38 C       -0.208241        0.025890       -0.092665       -0.066776
     39 C        0.040035        0.001114       -0.001534       -0.000420
     40 C        0.040251        0.001108       -0.001536       -0.000428
     41 C        0.005683        0.066096       -0.065404        0.000692
     42 C        0.005029        0.066341       -0.065544        0.000798
     43 C       -0.063141        0.038250       -0.094167       -0.055917
     44 C       -0.063156        0.038018       -0.094293       -0.056275
     45 H        0.028352        0.000528       -0.000209        0.000319
     46 H        0.015654        0.000062       -0.000018        0.000044
     47 H        0.019718        0.000714       -0.000224        0.000491
     48 H        0.027529        0.000077       -0.000028        0.000048
     49 H        0.011018        0.000009       -0.000014       -0.000005
     50 H        0.007259        0.000313       -0.000097        0.000216
     51 H        0.002959        0.000219       -0.000067        0.000152
     52 H       -0.001209        0.000006       -0.000003        0.000004
     53 H       -0.002732        0.000008       -0.000013       -0.000005
     54 H        0.000770        0.000005       -0.000005        0.000000
     55 H        0.044447        0.000213       -0.000099        0.000114
     56 H        0.036063        0.000069       -0.000025        0.000044
     57 H        0.026624        0.000292       -0.000010        0.000281
     58 H        0.027490        0.000304       -0.000027        0.000277
     59 H        0.041357        0.000200       -0.000093        0.000107
     60 H        0.036366        0.000077       -0.000024        0.000054
     61 H        0.008322        0.000485       -0.000427        0.000059
     62 H        0.009695        0.000477       -0.000431        0.000046
     63 H        0.016475        0.000082       -0.000034        0.000048
     64 H        0.020193        0.000015       -0.000028       -0.000013
     65 H        0.019427        0.000264       -0.000155        0.000109
     66 H        0.023370        0.000111       -0.000349       -0.000238
     67 H        0.018891        0.000022       -0.000013        0.000009
     68 H        0.011470        0.000052       -0.000006        0.000046
     69 H        0.029774        0.000060        0.000006        0.000066
     70 H        0.023506        0.000021       -0.000073       -0.000052
     71 H        0.024709        0.000265       -0.000377       -0.000112
     72 H        0.020096        0.000031       -0.000022        0.000008
     73 H        0.022154        0.000089       -0.000017        0.000073
     74 H        0.020300        0.000254       -0.000149        0.000105
     75 H        0.176588        0.000013       -0.000009        0.000004
     76 H        0.176644        0.000002       -0.000005       -0.000002
     77 H       -0.028853        0.000146       -0.000082        0.000063
     78 H       -0.028463        0.000152       -0.000087        0.000065
     79 H        0.052649        0.003646       -0.001789        0.001856
     80 H        0.053449        0.003936       -0.002072        0.001864
     81 H        0.035391        0.000048       -0.000084       -0.000036
     82 H        0.053328        0.003676       -0.001873        0.001803
     83 H        0.053514        0.003830       -0.001975        0.001855
     84 H        0.035331        0.000046       -0.000084       -0.000038
     85 H       -0.016957        0.000394       -0.000107        0.000287
     86 H       -0.016944        0.000393       -0.000107        0.000286
     87 H       -0.001481        0.000288       -0.000705       -0.000416
     88 H       -0.001628        0.000289       -0.000712       -0.000423
     89 H       -0.015246        0.000534       -0.000398        0.000136
     90 H       -0.015457        0.000535       -0.000399        0.000137
     91 H        0.050893        0.001335       -0.003400       -0.002065
     92 H        0.050616        0.001292       -0.003039       -0.001747
     93 H        0.036093        0.000030       -0.000064       -0.000035
     94 H        0.050951        0.001305       -0.003231       -0.001926
     95 H        0.050912        0.001313       -0.003250       -0.001936
     96 H        0.035825        0.000027       -0.000043       -0.000016
     97 H       -0.014235        0.000442       -0.000578       -0.000136
     98 H       -0.014376        0.000446       -0.000583       -0.000137
     99 H       -0.001087        0.000302       -0.000881       -0.000579
    100 H       -0.000883        0.000300       -0.000879       -0.000579
    ---------------------------------------------------------------------
     Sum:       -0.000000        1.000000       -1.000000       -0.000000
    
    Multipole moment analysis of the density matrix
      Molecular charge:                      -0.000000
      Number of electrons:                   328.000000
        Center of electronic charge [Ang]: [  0.004055,  -0.045879,  -0.014841]
      Total nuclear charge:                  328.000000
        Center of nuclear charge [Ang]:    [  0.005006,  -0.044791,  -0.015103]
      Dipole moment [D]:                     2.313468
        Cartesian components [D]:          [  1.498381,   1.713446,  -0.413629]
      RMS size of the density [Ang]:        10.396168
        Cartesian components [Ang]:        [ 10.232806,   1.313613,   1.282351]
    
    Exciton analysis of the difference density matrix
      <r_h> [Ang]:                  [  0.034340,   0.070534,   0.107568]
      <r_e> [Ang]:                  [  0.004587,   0.078613,   0.139062]
      |<r_e - r_h>| [Ang]:            0.044073
      Hole size [Ang]:                6.765459
        Cartesian components [Ang]: [  6.631020,   0.966281,   0.931295]
      Electron size [Ang]:            5.395601
        Cartesian components [Ang]: [  5.209611,   1.025815,   0.959252]

  Singlet 3 :
  -------------------------
    NOs
      Occupation of frontier NOs:
         0.1320   0.8371   1.1629   1.8680
      Number of electrons: 328.000000
      Number of unpaired electrons: n_u =  2.00000, n_u,nl =  2.01740
      NO participation ratio (PR_NO):  2.784475
    
    NDOs
      Leading detachment eigenvalues:
        -0.8371  -0.1320
      Leading attachment eigenvalues:
         0.8371   0.1320
      Number of detached / attached electrons: p_D =  1.0000, p_A =  1.0000
      Number of involved orbitals: PR_D =  1.392237, PR_A =  1.392237
    
    Mulliken Population Analysis
     Atom      Charge (e)              h+              e-           Del q
    ---------------------------------------------------------------------
      1 O       -0.339950        0.001722       -0.000639        0.001083
      2 O       -0.333634        0.001704       -0.000691        0.001013
      3 O       -0.303231        0.000064       -0.000019        0.000045
      4 O       -0.317605        0.000019       -0.000018        0.000001
      5 C        0.126960        0.002709       -0.003011       -0.000302
      6 C        0.113696        0.002674       -0.003735       -0.001061
      7 C       -0.119030        0.005869       -0.005948       -0.000079
      8 C       -0.105281        0.005649       -0.005739       -0.000090
      9 C       -0.274230        0.002175       -0.002446       -0.000271
     10 C       -0.285940        0.002280       -0.002487       -0.000208
     11 C        0.117341        0.000587       -0.000695       -0.000108
     12 C        0.118605        0.000564       -0.000670       -0.000106
     13 C        0.087363        0.000337       -0.000646       -0.000309
     14 C        0.102784        0.000274       -0.000599       -0.000325
     15 C        0.078491        0.000261       -0.000075        0.000186
     16 C        0.061426        0.000102       -0.000057        0.000046
     17 C        0.061167        0.000763       -0.000772       -0.000009
     18 C        0.062615        0.000770       -0.000733        0.000037
     19 C       -0.079150        0.050049       -0.081044       -0.030995
     20 C       -0.076609        0.049071       -0.079467       -0.030395
     21 C        0.057114        0.000827       -0.000360        0.000466
     22 C        0.051064        0.000163       -0.000086        0.000077
     23 C        0.049949        0.000373       -0.000524       -0.000151
     24 C        0.056218        0.000686       -0.000102        0.000584
     25 C        0.030885        0.010651       -0.035516       -0.024865
     26 C        0.027370        0.010561       -0.034790       -0.024229
     27 C       -0.151841        0.063734       -0.071642       -0.007908
     28 C       -0.150842        0.063010       -0.072237       -0.009227
     29 C        0.037268        0.001939       -0.001464        0.000475
     30 C        0.036599        0.001932       -0.001471        0.000461
     31 C       -0.024482        0.034184       -0.068306       -0.034122
     32 C       -0.024756        0.033787       -0.067950       -0.034163
     33 C        0.000454        0.068119       -0.039473        0.028646
     34 C       -0.000018        0.067484       -0.039736        0.027748
     35 C       -0.034683        0.040458       -0.092111       -0.051652
     36 C       -0.035200        0.040182       -0.091763       -0.051580
     37 C       -0.079202        0.069496       -0.005697        0.063799
     38 C       -0.078079        0.069127       -0.005741        0.063386
     39 C        0.041963        0.001956       -0.000449        0.001507
     40 C        0.042174        0.001939       -0.000445        0.001495
     41 C        0.009934        0.060542       -0.055598        0.004944
     42 C        0.008977        0.060270       -0.055524        0.004745
     43 C        0.041600        0.065404       -0.016580        0.048825
     44 C        0.042019        0.065365       -0.016465        0.048900
     45 H        0.027779        0.000519       -0.000774       -0.000254
     46 H        0.015611        0.000066       -0.000065        0.000001
     47 H        0.019172        0.000671       -0.000725       -0.000055
     48 H        0.027453        0.000079       -0.000107       -0.000028
     49 H        0.010966        0.000016       -0.000073       -0.000057
     50 H        0.007044        0.000286       -0.000285        0.000001
     51 H        0.002815        0.000205       -0.000197        0.000008
     52 H       -0.001213        0.000009       -0.000009        0.000000
     53 H       -0.002771        0.000017       -0.000061       -0.000044
     54 H        0.000758        0.000009       -0.000020       -0.000011
     55 H        0.044184        0.000201       -0.000350       -0.000150
     56 H        0.036032        0.000114       -0.000099        0.000014
     57 H        0.026586        0.000209        0.000034        0.000244
     58 H        0.027440        0.000223        0.000004        0.000227
     59 H        0.041115        0.000185       -0.000319       -0.000134
     60 H        0.036340        0.000120       -0.000091        0.000028
     61 H        0.007516        0.000646       -0.001394       -0.000748
     62 H        0.008878        0.000632       -0.001403       -0.000770
     63 H        0.016429        0.000084       -0.000081        0.000003
     64 H        0.020132        0.000035       -0.000109       -0.000074
     65 H        0.018936        0.000214       -0.000597       -0.000382
     66 H        0.022137        0.000127       -0.001598       -0.001471
     67 H        0.018867        0.000042       -0.000057       -0.000015
     68 H        0.011463        0.000052       -0.000012        0.000039
     69 H        0.029810        0.000060        0.000042        0.000102
     70 H        0.023285        0.000046       -0.000319       -0.000273
     71 H        0.023523        0.000250       -0.001548       -0.001298
     72 H        0.020046        0.000035       -0.000076       -0.000041
     73 H        0.022136        0.000103       -0.000047        0.000055
     74 H        0.020049        0.000211       -0.000358       -0.000146
     75 H        0.176555        0.000012       -0.000042       -0.000029
     76 H        0.176630        0.000004       -0.000021       -0.000016
     77 H       -0.029217        0.000178       -0.000479       -0.000300
     78 H       -0.028835        0.000180       -0.000488       -0.000308
     79 H        0.050911        0.003277       -0.003157        0.000119
     80 H        0.051121        0.003570       -0.004035       -0.000465
     81 H        0.035277        0.000145       -0.000295       -0.000150
     82 H        0.051454        0.003281       -0.003352       -0.000071
     83 H        0.051434        0.003440       -0.003665       -0.000226
     84 H        0.035217        0.000143       -0.000295       -0.000152
     85 H       -0.017553        0.000297       -0.000606       -0.000309
     86 H       -0.017538        0.000294       -0.000602       -0.000308
     87 H       -0.000887        0.000568       -0.000390        0.000178
     88 H       -0.001034        0.000565       -0.000395        0.000170
     89 H       -0.016051        0.000466       -0.001135       -0.000669
     90 H       -0.016261        0.000464       -0.001132       -0.000667
     91 H        0.056364        0.003721       -0.000315        0.003406
     92 H        0.055560        0.003539       -0.000342        0.003196
     93 H        0.036142        0.000083       -0.000069        0.000014
     94 H        0.056158        0.003601       -0.000319        0.003281
     95 H        0.056136        0.003613       -0.000325        0.003288
     96 H        0.035850        0.000079       -0.000069        0.000009
     97 H       -0.014549        0.000782       -0.001232       -0.000450
     98 H       -0.014690        0.000780       -0.001231       -0.000451
     99 H       -0.000596        0.000813       -0.000901       -0.000088
    100 H       -0.000388        0.000811       -0.000896       -0.000085
    ---------------------------------------------------------------------
     Sum:       -0.000000        1.000000       -1.000000        0.000000
    
    Multipole moment analysis of the density matrix
      Molecular charge:                      -0.000000
      Number of electrons:                   328.000000
        Center of electronic charge [Ang]: [  0.004113,  -0.045933,  -0.015062]
      Total nuclear charge:                  328.000000
        Center of nuclear charge [Ang]:    [  0.005006,  -0.044791,  -0.015103]
      Dipole moment [D]:                     2.285604
        Cartesian components [D]:          [  1.407330,   1.799779,  -0.064816]
      RMS size of the density [Ang]:        10.400744
        Cartesian components [Ang]:        [ 10.237505,   1.313356,   1.282212]
    
    Exciton analysis of the difference density matrix
      <r_h> [Ang]:                  [  0.049036,   0.071825,   0.123528]
      <r_e> [Ang]:                  [  0.038240,   0.061931,   0.082401]
      |<r_e - r_h>| [Ang]:            0.043656
      Hole size [Ang]:                6.306777
        Cartesian components [Ang]: [  6.148325,   1.023280,   0.962509]
      Electron size [Ang]:            7.372489
        Cartesian components [Ang]: [  7.247366,   0.973908,   0.938504]

  Singlet 4 :
  -------------------------
    NOs
      Occupation of frontier NOs:
         0.1895   0.7392   1.2608   1.8105
      Number of electrons: 328.000000
      Number of unpaired electrons: n_u =  2.00000, n_u,nl =  1.99175
      NO participation ratio (PR_NO):  3.419637
    
    NDOs
      Leading detachment eigenvalues:
        -0.7392  -0.1895
      Leading attachment eigenvalues:
         0.7392   0.1895
      Number of detached / attached electrons: p_D =  1.0000, p_A =  1.0000
      Number of involved orbitals: PR_D =  1.709819, PR_A =  1.709819
    
    Mulliken Population Analysis
     Atom      Charge (e)              h+              e-           Del q
    ---------------------------------------------------------------------
      1 O       -0.338614        0.002687       -0.000268        0.002419
      2 O       -0.332268        0.002667       -0.000288        0.002379
      3 O       -0.303138        0.000146       -0.000008        0.000138
      4 O       -0.317608        0.000004       -0.000006       -0.000002
      5 C        0.130145        0.003964       -0.001082        0.002883
      6 C        0.117279        0.003895       -0.001373        0.002522
      7 C       -0.113562        0.007931       -0.002542        0.005389
      8 C       -0.100007        0.007667       -0.002483        0.005184
      9 C       -0.272331        0.002674       -0.001046        0.001628
     10 C       -0.283992        0.002807       -0.001067        0.001740
     11 C        0.117926        0.000750       -0.000271        0.000478
     12 C        0.119141        0.000695       -0.000265        0.000430
     13 C        0.087791        0.000367       -0.000248        0.000119
     14 C        0.103190        0.000306       -0.000225        0.000081
     15 C        0.078771        0.000501       -0.000034        0.000467
     16 C        0.061551        0.000189       -0.000019        0.000171
     17 C        0.062050        0.001195       -0.000321        0.000874
     18 C        0.063457        0.001195       -0.000316        0.000879
     19 C       -0.029050        0.058801       -0.039696        0.019105
     20 C       -0.027391        0.058194       -0.039371        0.018823
     21 C        0.057799        0.001336       -0.000184        0.001152
     22 C        0.051053        0.000109       -0.000043        0.000066
     23 C        0.050244        0.000376       -0.000232        0.000144
     24 C        0.056742        0.001186       -0.000078        0.001108
     25 C        0.075838        0.033848       -0.013760        0.020088
     26 C        0.071538        0.033506       -0.013567        0.019939
     27 C       -0.161307        0.039578       -0.056953       -0.017375
     28 C       -0.159400        0.039756       -0.057541       -0.017785
     29 C        0.036812        0.001015       -0.000995        0.000019
     30 C        0.036164        0.001029       -0.001003        0.000026
     31 C        0.051156        0.074083       -0.032567        0.041516
     32 C        0.051004        0.074184       -0.032588        0.041597
     33 C       -0.074831        0.030242       -0.076880       -0.046639
     34 C       -0.075192        0.029994       -0.077421       -0.047426
     35 C        0.011916        0.049944       -0.054996       -0.005053
     36 C        0.011638        0.050477       -0.055220       -0.004743
     37 C       -0.146751        0.073964       -0.077715       -0.003751
     38 C       -0.146157        0.073602       -0.078293       -0.004691
     39 C        0.044635        0.005662       -0.001482        0.004180
     40 C        0.044865        0.005669       -0.001483        0.004187
     41 C       -0.021778        0.026943       -0.053712       -0.026769
     42 C       -0.022912        0.026728       -0.053871       -0.027143
     43 C       -0.011155        0.064691       -0.068622       -0.003931
     44 C       -0.010827        0.064906       -0.068852       -0.003946
     45 H        0.028503        0.000745       -0.000274        0.000471
     46 H        0.015682        0.000092       -0.000019        0.000073
     47 H        0.019985        0.001032       -0.000274        0.000758
     48 H        0.027562        0.000117       -0.000035        0.000081
     49 H        0.011012        0.000008       -0.000019       -0.000011
     50 H        0.007335        0.000405       -0.000113        0.000292
     51 H        0.003021        0.000287       -0.000074        0.000213
     52 H       -0.001203        0.000012       -0.000002        0.000010
     53 H       -0.002733        0.000007       -0.000013       -0.000007
     54 H        0.000775        0.000008       -0.000003        0.000006
     55 H        0.044511        0.000302       -0.000125        0.000177
     56 H        0.036162        0.000153       -0.000010        0.000144
     57 H        0.026743        0.000419       -0.000019        0.000400
     58 H        0.027633        0.000425       -0.000005        0.000420
     59 H        0.041410        0.000273       -0.000113        0.000160
     60 H        0.036470        0.000166       -0.000008        0.000158
     61 H        0.008210        0.000424       -0.000478       -0.000053
     62 H        0.009584        0.000422       -0.000486       -0.000064
     63 H        0.016481        0.000086       -0.000031        0.000055
     64 H        0.020219        0.000032       -0.000019        0.000013
     65 H        0.019474        0.000298       -0.000143        0.000156
     66 H        0.023136        0.000072       -0.000544       -0.000472
     67 H        0.018909        0.000032       -0.000004        0.000028
     68 H        0.011503        0.000084       -0.000005        0.000079
     69 H        0.029820        0.000100        0.000012        0.000112
     70 H        0.023475        0.000013       -0.000096       -0.000083
     71 H        0.024561        0.000244       -0.000504       -0.000260
     72 H        0.020097        0.000031       -0.000022        0.000010
     73 H        0.022218        0.000150       -0.000012        0.000137
     74 H        0.020338        0.000260       -0.000117        0.000143
     75 H        0.176592        0.000021       -0.000012        0.000008
     76 H        0.176646        0.000003       -0.000004       -0.000001
     77 H       -0.028805        0.000226       -0.000114        0.000111
     78 H       -0.028415        0.000231       -0.000118        0.000112
     79 H        0.050927        0.002198       -0.002063        0.000135
     80 H        0.051546        0.002385       -0.002424       -0.000039
     81 H        0.035402        0.000024       -0.000049       -0.000025
     82 H        0.051597        0.002233       -0.002161        0.000072
     83 H        0.051713        0.002342       -0.002288        0.000054
     84 H        0.035343        0.000022       -0.000048       -0.000025
     85 H       -0.017091        0.000440       -0.000288        0.000153
     86 H       -0.017077        0.000441       -0.000289        0.000153
     87 H       -0.001612        0.000212       -0.000759       -0.000547
     88 H       -0.001759        0.000212       -0.000766       -0.000554
     89 H       -0.015609        0.000365       -0.000592       -0.000227
     90 H       -0.015822        0.000367       -0.000596       -0.000229
     91 H        0.055046        0.005433       -0.003345        0.002088
     92 H        0.054305        0.004969       -0.003027        0.001942
     93 H        0.036110        0.000092       -0.000111       -0.000018
     94 H        0.054889        0.005205       -0.003193        0.002012
     95 H        0.054795        0.005167       -0.003220        0.001947
     96 H        0.035834        0.000086       -0.000093       -0.000007
     97 H       -0.014321        0.000164       -0.000386       -0.000222
     98 H       -0.014465        0.000163       -0.000389       -0.000226
     99 H       -0.000652        0.000417       -0.000561       -0.000144
    100 H       -0.000448        0.000419       -0.000563       -0.000144
    ---------------------------------------------------------------------
     Sum:       -0.000000        1.000000       -1.000000        0.000000
    
    Multipole moment analysis of the density matrix
      Molecular charge:                      -0.000000
      Number of electrons:                   328.000000
        Center of electronic charge [Ang]: [  0.004089,  -0.045902,  -0.014897]
      Total nuclear charge:                  328.000000
        Center of nuclear charge [Ang]:    [  0.005006,  -0.044791,  -0.015103]
      Dipole moment [D]:                     2.292224
        Cartesian components [D]:          [  1.444490,   1.749860,  -0.325165]
      RMS size of the density [Ang]:        10.397065
        Cartesian components [Ang]:        [ 10.233737,   1.313519,   1.282285]
    
    Exciton analysis of the difference density matrix
      <r_h> [Ang]:                  [  0.030263,   0.074424,   0.112193]
      <r_e> [Ang]:                  [  0.011730,   0.074922,   0.125269]
      |<r_e - r_h>| [Ang]:            0.022687
      Hole size [Ang]:                6.754709
        Cartesian components [Ang]: [  6.608583,   1.012166,   0.963450]
      Electron size [Ang]:            5.923863
        Cartesian components [Ang]: [  5.753093,   1.031380,   0.964534]

  Singlet 5 :
  -------------------------
    NOs
      Occupation of frontier NOs:
         0.3660   0.4841   1.5159   1.6340
      Number of electrons: 328.000000
      Number of unpaired electrons: n_u =  2.00000, n_u,nl =  1.88098
      NO participation ratio (PR_NO):  5.253242
    
    NDOs
      Leading detachment eigenvalues:
        -0.4841  -0.3660
      Leading attachment eigenvalues:
         0.4841   0.3660
      Number of detached / attached electrons: p_D =  1.0000, p_A =  1.0000
      Number of involved orbitals: PR_D =  2.626621, PR_A =  2.626621
    
    Mulliken Population Analysis
     Atom      Charge (e)              h+              e-           Del q
    ---------------------------------------------------------------------
      1 O       -0.337340        0.004496       -0.000804        0.003693
      2 O       -0.331155        0.004374       -0.000883        0.003492
      3 O       -0.303105        0.000197       -0.000026        0.000172
      4 O       -0.317597        0.000031       -0.000022        0.000009
      5 C        0.130276        0.006532       -0.003519        0.003014
      6 C        0.116642        0.006400       -0.004515        0.001885
      7 C       -0.114698        0.011345       -0.007093        0.004252
      8 C       -0.101178        0.010805       -0.006792        0.004013
      9 C       -0.273057        0.003839       -0.002937        0.000902
     10 C       -0.284693        0.003948       -0.002909        0.001039
     11 C        0.117765        0.001148       -0.000830        0.000317
     12 C        0.118981        0.001060       -0.000790        0.000270
     13 C        0.087372        0.000525       -0.000826       -0.000300
     14 C        0.102776        0.000435       -0.000768       -0.000333
     15 C        0.078907        0.000651       -0.000049        0.000602
     16 C        0.061565        0.000246       -0.000061        0.000185
     17 C        0.061672        0.001414       -0.000918        0.000495
     18 C        0.063103        0.001358       -0.000833        0.000525
     19 C       -0.068067        0.061651       -0.081563       -0.019912
     20 C       -0.065435        0.060664       -0.079885       -0.019221
     21 C        0.058219        0.001796       -0.000224        0.001572
     22 C        0.051154        0.000208       -0.000041        0.000167
     23 C        0.050068        0.000516       -0.000548       -0.000031
     24 C        0.057205        0.001595       -0.000024        0.001571
     25 C        0.026268        0.023463       -0.052945       -0.029482
[...]
      H- 6 -> L+ 0:  0.5705 ( 65.1%)
      H- 3 -> L+ 1:  0.1991 (  7.9%)
      H- 7 -> L+ 1: -0.1862 (  6.9%)
      H- 0 -> L+ 5: -0.1607 (  5.2%)
      H- 4 -> L+ 0: -0.1521 (  4.6%)
      H- 1 -> L+ 6: -0.0752 (  1.1%)
                     omega = 100.0%

  Singlet 9 :
  -------------------------
    Decomposition into state-averaged NTOs
      H- 2 -> L+ 1: -0.3541 ( 25.1%)
      H- 1 -> L+ 2:  0.3527 ( 24.9%)
      H- 0 -> L+ 3: -0.2974 ( 17.7%)
      H- 7 -> L+ 0: -0.2178 (  9.5%)
      H- 5 -> L+ 0:  0.1486 (  4.4%)
      H- 3 -> L+ 0:  0.1151 (  2.6%)
      H- 6 -> L+ 1:  0.1090 (  2.4%)
      H- 3 -> L+ 2: -0.0900 (  1.6%)
      H- 4 -> L+ 1: -0.0894 (  1.6%)
      H- 0 -> L+ 1: -0.0721 (  1.0%)
                     omega = 100.0%

  Singlet 10 :
  -------------------------
    Decomposition into state-averaged NTOs
      H- 4 -> L+ 0:  0.4858 ( 47.2%)
      H- 5 -> L+ 0: -0.3111 ( 19.4%)
      H- 5 -> L+ 1: -0.2295 ( 10.5%)
      H- 4 -> L+ 1:  0.2287 ( 10.5%)
      H- 6 -> L+ 0:  0.1119 (  2.5%)
      H- 4 -> L+ 2: -0.1080 (  2.3%)
      H- 2 -> L+ 1: -0.0772 (  1.2%)
                     omega = 100.0%

  Singlet 11 :
  -------------------------
    Decomposition into state-averaged NTOs
      H- 5 -> L+ 0:  0.4701 ( 44.2%)
      H- 4 -> L+ 0:  0.2973 ( 17.7%)
      H- 5 -> L+ 1: -0.2537 ( 12.9%)
      H- 4 -> L+ 1: -0.2368 ( 11.2%)
      H- 2 -> L+ 1:  0.1116 (  2.5%)
      H- 5 -> L+ 2: -0.1101 (  2.4%)
      H- 6 -> L+ 0:  0.0975 (  1.9%)
      H- 4 -> L+ 2: -0.0708 (  1.0%)
                     omega = 100.0%

  Singlet 12 :
  -------------------------
    Decomposition into state-averaged NTOs
      H- 2 -> L+ 1: -0.5005 ( 50.1%)
      H- 7 -> L+ 0:  0.2657 ( 14.1%)
      H- 3 -> L+ 0: -0.2354 ( 11.1%)
      H- 0 -> L+ 3:  0.2053 (  8.4%)
      H- 1 -> L+ 0:  0.1387 (  3.8%)
      H- 6 -> L+ 1: -0.1152 (  2.7%)
      H- 3 -> L+ 2: -0.1001 (  2.0%)
      H- 0 -> L+ 6: -0.0820 (  1.3%)
      H- 2 -> L+ 3: -0.0777 (  1.2%)
      H- 1 -> L+ 2: -0.0748 (  1.1%)
                     omega = 100.0%

  Singlet 13 :
  -------------------------
    Decomposition into state-averaged NTOs
      H- 7 -> L+ 0:  0.4764 ( 45.4%)
      H- 1 -> L+ 2:  0.3237 ( 21.0%)
      H- 6 -> L+ 1: -0.1854 (  6.9%)
      H- 0 -> L+ 6: -0.1369 (  3.7%)
      H- 0 -> L+ 3: -0.1367 (  3.7%)
      H- 3 -> L+ 2:  0.1212 (  2.9%)
      H- 3 -> L+ 0:  0.1122 (  2.5%)
      H- 2 -> L+ 1:  0.1013 (  2.1%)
      H- 1 -> L+ 0: -0.0915 (  1.7%)
      H- 2 -> L+ 3:  0.0911 (  1.7%)
      H- 0 -> L+ 1: -0.0818 (  1.3%)
      H- 1 -> L+ 5: -0.0802 (  1.3%)
                     omega = 100.0%

  Singlet 14 :
  -------------------------
    Decomposition into state-averaged NTOs
      H- 0 -> L+ 3: -0.4540 ( 41.2%)
      H- 1 -> L+ 2: -0.4120 ( 33.9%)
      H- 3 -> L+ 0:  0.1536 (  4.7%)
      H- 0 -> L+ 1:  0.1462 (  4.3%)
      H- 7 -> L+ 0:  0.1294 (  3.3%)
      H- 1 -> L+ 5: -0.1233 (  3.0%)
      H- 1 -> L+ 0:  0.1005 (  2.0%)
      H- 2 -> L+ 3: -0.0888 (  1.6%)
      H- 2 -> L+ 1: -0.0742 (  1.1%)
                     omega = 100.0%

  Singlet 15 :
  -------------------------
    Decomposition into state-averaged NTOs
      H- 8 -> L+ 0:  0.4661 ( 43.4%)
      H- 0 -> L+ 4: -0.4290 ( 36.8%)
      H- 9 -> L+ 1: -0.1646 (  5.4%)
      H- 1 -> L+ 7:  0.1040 (  2.2%)
      H- 8 -> L+ 1:  0.0793 (  1.3%)
                     omega = 100.0%

================================================================================
 
 --------------------------------------------------------------
 
                    Orbital Energies (a.u.)
 --------------------------------------------------------------
 
 Alpha MOs
 -- Occupied --
-19.2191 -19.2174 -19.2041 -19.2036 -10.3141 -10.3125 -10.3119 -10.3103
-10.2982 -10.2952 -10.2702 -10.2699 -10.2686 -10.2682 -10.2678 -10.2647
-10.2613 -10.2607 -10.2590 -10.2588 -10.2583 -10.2582 -10.2580 -10.2579
-10.2566 -10.2564 -10.2564 -10.2558 -10.2557 -10.2551 -10.2488 -10.2486
-10.2486 -10.2484 -10.2483 -10.2482 -10.2451 -10.2451 -10.2429 -10.2416
-10.2414 -10.2391 -10.2385 -10.2365  -1.1546  -1.1528  -1.0953  -1.0953
 -0.9217  -0.9177  -0.9106  -0.9072  -0.9031  -0.8993  -0.8741  -0.8660
 -0.8625  -0.8513  -0.8407  -0.8229  -0.8154  -0.8043  -0.8013  -0.7794
 -0.7627  -0.7624  -0.7581  -0.7566  -0.7558  -0.7541  -0.7494  -0.7410
 -0.7317  -0.7056  -0.6890  -0.6769  -0.6610  -0.6458  -0.6423  -0.6393
 -0.6190  -0.6131  -0.6018  -0.5990  -0.5979  -0.5915  -0.5909  -0.5789
 -0.5706  -0.5647  -0.5603  -0.5535  -0.5463  -0.5436  -0.5408  -0.5342
 -0.5267  -0.5252  -0.5138  -0.5096  -0.5066  -0.5032  -0.5006  -0.4975
 -0.4912  -0.4861  -0.4847  -0.4808  -0.4801  -0.4796  -0.4776  -0.4767
 -0.4761  -0.4757  -0.4640  -0.4623  -0.4610  -0.4565  -0.4544  -0.4533
 -0.4467  -0.4430  -0.4389  -0.4383  -0.4350  -0.4317  -0.4291  -0.4251
 -0.4223  -0.4214  -0.4205  -0.4173  -0.4170  -0.4153  -0.4137  -0.4112
 -0.4098  -0.4061  -0.4044  -0.4040  -0.4007  -0.3979  -0.3949  -0.3929
 -0.3919  -0.3878  -0.3851  -0.3827  -0.3793  -0.3785  -0.3715  -0.3698
 -0.3628  -0.3557  -0.3421  -0.3344  -0.3326  -0.3293  -0.3225  -0.3224
 -0.3131  -0.2805  -0.2464  -0.2090
 -- Virtual --
 -0.0486  -0.0043   0.0359   0.0772   0.0994   0.1057   0.1091   0.1129
  0.1160   0.1194   0.1229   0.1240   0.1280   0.1301   0.1316   0.1325
  0.1337   0.1353   0.1389   0.1396   0.1420   0.1433   0.1454   0.1474
  0.1528   0.1533   0.1577   0.1606   0.1667   0.1671   0.1680   0.1685
  0.1714   0.1732   0.1742   0.1765   0.1843   0.1853   0.1907   0.1943
  0.1955   0.1981   0.2003   0.2028   0.2047   0.2060   0.2075   0.2092
  0.2109   0.2115   0.2136   0.2174   0.2211   0.2227   0.2246   0.2268
  0.2321   0.2325   0.2348   0.2382   0.2389   0.2463   0.2484   0.2563
  0.2598   0.2606   0.2646   0.2652   0.2692   0.2712   0.2725   0.2757
  0.2771   0.2798   0.2832   0.2874   0.2916   0.2933   0.2943   0.2999
  0.3032   0.3064   0.3091   0.3122   0.3229   0.3251   0.3280   0.3329
  0.3381   0.3440   0.3499   0.3512   0.3640   0.3669   0.3825   0.3852
  0.3878   0.3933   0.4036   0.4051   0.4155   0.4243   0.4253   0.4275
  0.4426   0.4470   0.4559   0.4607   0.4657   0.4711   0.4750   0.4763
  0.4846   0.4867   0.4886   0.4919   0.4938   0.4952   0.4965   0.4984
  0.5031   0.5037   0.5088   0.5162   0.5181   0.5226   0.5261   0.5360
  0.5365   0.5390   0.5483   0.5508   0.5542   0.5556   0.5564   0.5577
  0.5600   0.5612   0.5640   0.5657   0.5674   0.5683   0.5686   0.5736
  0.5760   0.5785   0.5795   0.5816   0.5844   0.5908   0.5922   0.5941
  0.5988   0.6001   0.6035   0.6080   0.6109   0.6139   0.6171   0.6194
  0.6244   0.6247   0.6278   0.6308   0.6333   0.6351   0.6360   0.6371
  0.6392   0.6470   0.6491   0.6532   0.6545   0.6590   0.6595   0.6623
  0.6648   0.6705   0.6719   0.6755   0.6776   0.6799   0.6825   0.6835
  0.6889   0.6941   0.6952   0.6977   0.7008   0.7018   0.7042   0.7060
  0.7083   0.7107   0.7111   0.7130   0.7141   0.7149   0.7171   0.7191
  0.7213   0.7222   0.7266   0.7279   0.7291   0.7298   0.7315   0.7330
  0.7333   0.7367   0.7382   0.7391   0.7416   0.7418   0.7436   0.7448
  0.7466   0.7482   0.7499   0.7518   0.7527   0.7544   0.7575   0.7587
  0.7600   0.7643   0.7667   0.7719   0.7728   0.7755   0.7776   0.7782
  0.7822   0.7830   0.7854   0.7877   0.7909   0.7919   0.7945   0.7979
  0.8084   0.8103   0.8111   0.8123   0.8160   0.8172   0.8208   0.8229
  0.8258   0.8279   0.8304   0.8358   0.8363   0.8386   0.8438   0.8483
  0.8522   0.8562   0.8646   0.8656   0.8728   0.8818   0.8902   0.9060
  0.9083   0.9150   0.9191   0.9319   0.9329   0.9474   0.9509   0.9541
  0.9617   0.9651   0.9656   0.9680   0.9703   0.9767   0.9862   0.9939
  0.9988   1.0055   1.0076   1.0130   1.0145   1.0191   1.0230   1.0262
  1.0311   1.0321   1.0353   1.0403   1.0427   1.0609   1.0641   1.0665
  1.0679   1.0744   1.0758   1.0768   1.0861   1.0891   1.0947   1.0976
  1.1020   1.1058   1.1092   1.1173   1.1256   1.1292   1.1304   1.1314
  1.1330   1.1369   1.1408   1.1451   1.1493   1.1518   1.1706   1.1717
  1.1731   1.1762   1.1828   1.1836   1.1930   1.1992   1.2152   1.2169
  1.2270   1.2339   1.2375   1.2398   1.2468   1.2566   1.2597   1.2655
  1.2730   1.2806   1.2857   1.2868   1.2907   1.3074   1.3086   1.3124
  1.3164   1.3385   1.3423   1.3461   1.3537   1.3706   1.3746   1.3775
  1.3830   1.3871   1.3940   1.3979   1.4042   1.4056   1.4063   1.4093
  1.4132   1.4152   1.4176   1.4186   1.4272   1.4332   1.4365   1.4409
  1.4447   1.4509   1.4547   1.4603   1.4612   1.4658   1.4679   1.4743
  1.4833   1.4860   1.4893   1.4934   1.4980   1.5008   1.5024   1.5039
  1.5052   1.5069   1.5088   1.5117   1.5169   1.5202   1.5247   1.5258
  1.5296   1.5362   1.5377   1.5432   1.5475   1.5492   1.5526   1.5549
  1.5558   1.5591   1.5619   1.5647   1.5683   1.5701   1.5733   1.5753
  1.5780   1.5792   1.5849   1.5874   1.5890   1.5936   1.6019   1.6030
  1.6086   1.6111   1.6139   1.6186   1.6217   1.6250   1.6269   1.6318
  1.6371   1.6398   1.6424   1.6490   1.6503   1.6536   1.6601   1.6612
  1.6639   1.6668   1.6751   1.6768   1.6804   1.6881   1.6914   1.6930
  1.6944   1.6963   1.6973   1.7015   1.7035   1.7051   1.7132   1.7149
  1.7186   1.7192   1.7230   1.7252   1.7304   1.7355   1.7408   1.7410
  1.7439   1.7446   1.7472   1.7484   1.7543   1.7581   1.7607   1.7624
  1.7663   1.7667   1.7727   1.7739   1.7747   1.7789   1.7808   1.7835
  1.7849   1.7892   1.7909   1.7971   1.7976   1.7988   1.7992   1.7996
  1.8057   1.8100   1.8111   1.8158   1.8189   1.8201   1.8219   1.8242
  1.8252   1.8272   1.8330   1.8374   1.8406   1.8429   1.8455   1.8506
  1.8527   1.8556   1.8575   1.8598   1.8636   1.8657   1.8664   1.8716
  1.8753   1.8771   1.8805   1.8807   1.8868   1.8911   1.8940   1.8985
  1.9016   1.9063   1.9070   1.9119   1.9158   1.9209   1.9265   1.9288
  1.9306   1.9353   1.9368   1.9462   1.9494   1.9501   1.9569   1.9587
  1.9683   1.9733   1.9769   1.9787   1.9838   1.9896   1.9959   1.9984
  2.0026   2.0047   2.0109   2.0184   2.0226   2.0255   2.0310   2.0472
  2.0515   2.0558   2.0592   2.0673   2.0731   2.0757   2.0770   2.0808
  2.0836   2.0851   2.0857   2.0945   2.0957   2.0992   2.1046   2.1088
  2.1125   2.1198   2.1261   2.1303   2.1330   2.1381   2.1408   2.1430
  2.1467   2.1478   2.1529   2.1580   2.1657   2.1693   2.1726   2.1793
  2.1816   2.1862   2.1903   2.1958   2.1973   2.2015   2.2035   2.2064
  2.2093   2.2139   2.2168   2.2219   2.2236   2.2273   2.2310   2.2317
  2.2395   2.2455   2.2477   2.2625   2.2649   2.2713   2.2732   2.2758
  2.2820   2.2841   2.2916   2.2938   2.2955   2.3060   2.3131   2.3218
  2.3235   2.3294   2.3356   2.3462   2.3519   2.3540   2.3608   2.3697
  2.3756   2.3813   2.3859   2.3885   2.3967   2.4020   2.4084   2.4102
  2.4134   2.4162   2.4184   2.4190   2.4214   2.4218   2.4265   2.4306
  2.4391   2.4468   2.4606   2.4625   2.4640   2.4703   2.4895   2.4933
  2.4961   2.5014   2.5016   2.5052   2.5111   2.5126   2.5137   2.5149
  2.5179   2.5241   2.5309   2.5330   2.5341   2.5367   2.5395   2.5410
  2.5503   2.5517   2.5558   2.5577   2.5699   2.5718   2.5726   2.5738
  2.5746   2.5776   2.5825   2.5847   2.5873   2.5910   2.5974   2.6001
  2.6055   2.6086   2.6170   2.6187   2.6293   2.6335   2.6349   2.6382
  2.6426   2.6531   2.6551   2.6653   2.6797   2.6857   2.6944   2.6975
  2.7057   2.7180   2.7284   2.7309   2.7484   2.7670   2.7770   2.7865
  2.8546   2.8587   2.8689   2.8858   2.9063   2.9272   2.9617   2.9685
  2.9783   3.0415   3.0426   3.0493   3.0810   3.0823   3.1201   3.1252
  3.1275   3.1376   3.1621   3.1648   3.1684   3.1725   3.2103   3.2115
  3.2175   3.2359   3.2600   3.2657   3.3559   3.3656   3.3775   3.3877
  3.4944   3.4998   3.7962   3.8151
 --------------------------------------------------------------
 
 -----------------------------------------------------------------
                    Cartesian Multipole Moments
 -----------------------------------------------------------------
    Charge (ESU x 10^10)
                -0.0000
    Dipole Moment (Debye)
         X       1.3555      Y       1.7523      Z      -0.2624
       Tot       2.2308
    Quadrupole Moments (Debye-Ang)
        XX    -197.6485     XY       6.2871     YY    -256.3054
        XZ      58.7556     YZ      -5.0002     ZZ    -265.8341
    Octopole Moments (Debye-Ang^2)
       XXX     881.8518    XXY     331.4229    XYY     -47.8183
       YYY      30.2896    XXZ    -125.4269    XYZ      -4.8838
       YYZ       7.5372    XZZ      34.5351    YZZ      13.4246
       ZZZ      25.2059
    Hexadecapole Moments (Debye-Ang^3)
      XXXX -144036.8465   XXXY    7462.4058   XXYY  -26311.5969
      XYYY     366.8900   YYYY   -2688.4785   XXXZ   10257.0810
      XXYZ     933.1648   XYYZ      43.9781   YYYZ     161.2518
      XXZZ  -27476.7390   XYZZ     -28.9977   YYZZ    -885.0310
      XZZZ    -269.5476   YZZZ     175.4681   ZZZZ   -2617.3890
 -----------------------------------------------------------------
 Total job time:  4743.99s(wall), 35423.44s(cpu) 
 Tue Jul 12 08:18:33 2022

======= MOLDEN-FORMATTED INPUT FILE FOLLOWS =======
[Molden Format]
[Atoms] (Angs)
  O      1    8     11.25568770      1.32527919     -0.72486511
  O      2    8    -11.28055122     -0.93729062      1.00089850
  O      3    8     15.04725978     -0.17347149      0.27911458
  O      4    8    -15.49149997     -1.28478832      1.04923022
  C      5    6     11.56254446      0.03476894     -0.18077764
  C      6    6    -11.56353152     -0.05496051     -0.10076309
  C      7    6     12.11866084      1.27505689      0.43635730
  C      8    6    -12.09554540      0.22134923      1.26781243
  C      9    6     12.43333073     -0.84160807     -1.10024973
  C     10    6    -12.46140675     -0.67715801     -1.20072446
  C     11    6     13.53324798      1.73612951      0.15073598
  C     12    6    -13.52661217     -0.11114260      1.60680822
  C     13    6     13.62689511     -0.02898673     -1.63696200
  C     14    6    -13.92425363     -0.79464726     -0.73849288
  C     15    6     14.41864400      0.75111527     -0.60518440
  C     16    6    -14.11177985     -1.18555307      0.71508002
  C     17    6     11.52427042      1.85917900      1.68869886
  C     18    6    -11.47234376      1.25579739      2.16226164
  C     19    6     10.41281493     -0.66314294      0.45700033
  C     20    6    -10.37722343      0.69623862     -0.59460590
  C     21    6     11.58681286     -1.26891099     -2.30520962
  C     22    6     12.89620693     -2.09693109     -0.34992299
  C     23    6    -12.45162494      0.17720451     -2.47281058
  C     24    6    -11.88776454     -2.05776413     -1.53657426
  C     25    6      9.13008022     -0.28597793      0.28718571
  C     26    6     -9.10683825      0.36624367     -0.28750024
  C     27    6      7.95930619     -0.94536045      0.84487061
  C     28    6     -7.90899338      1.05030353     -0.75070629
  C     29    6      8.16215822     -2.14480593      1.71887941
  C     30    6     -8.06651701      2.23592522     -1.65264670
  C     31    6      6.73271149     -0.43379409      0.52279836
  C     32    6     -6.69996407      0.56450399     -0.33557521
  C     33    6      5.44384029     -0.91995618      0.92493204
  C     34    6     -5.39603574      1.06372102     -0.66703008
  C     35    6      4.28335313     -0.33272752      0.51491656
  C     36    6     -4.24989940      0.49583967     -0.19419212
  C     37    6      2.94686783     -0.75822731      0.85442372
  C     38    6     -2.90577880      0.93104962     -0.48930799
  C     39    6      2.77382398     -1.94438289      1.75506673
  C     40    6     -2.71423289      2.11182618     -1.39368282
  C     41    6      1.89726411     -0.05041667      0.32150109
  C     42    6     -1.86609408      0.23166726      0.07365322
  C     43    6      0.50056963     -0.29201035      0.50033454
  C     44    6     -0.46765168      0.47441698     -0.08851548
  H     45    1     13.44886930      2.67414099     -0.42423609
  H     46    1     14.03066460      1.99989993      1.09776228
  H     47    1    -13.57810728     -0.42106311      2.66445485
  H     48    1    -14.13872427      0.80214868      1.51030824
  H     49    1     13.25709624      0.69607577     -2.37977773
  H     50    1     14.30491504     -0.71302154     -2.17307139
  H     51    1    -14.44035649     -1.52259727     -1.38823847
  H     52    1    -14.43372642      0.17535359     -0.88029661
  H     53    1     15.19996170      1.32729308     -1.13516566
  H     54    1    -13.60775819     -2.14731162      0.91860041
  H     55    1     12.06608460      1.49096635      2.57434686
  H     56    1     11.62310773      2.95695489      1.67124705
  H     57    1     10.46190833      1.60765665      1.79898642
  H     58    1    -10.42904133      1.45902253      1.89042066
  H     59    1    -12.03949735      2.19834096      2.10712460
  H     60    1    -11.50172824      0.91016410      3.20809355
  H     61    1     10.66004192     -1.54071652      1.05974368
  H     62    1    -10.58754467      1.54532014     -1.24900442
  H     63    1     11.16817330     -0.39468403     -2.82982468
  H     64    1     12.20671161     -1.82836993     -3.02446533
  H     65    1     10.75113542     -1.91973801     -2.00353324
  H     66    1     12.05395213     -2.77768005     -0.15225465
  H     67    1     13.62612514     -2.65182904     -0.96100673
  H     68    1     13.38015268     -1.85101875      0.60437469
  H     69    1    -12.74061362      1.22122445     -2.27068520
  H     70    1    -13.17868572     -0.23348904     -3.19181234
  H     71    1    -11.46645691      0.18027505     -2.96388380
  H     72    1    -11.96306149     -2.74889507     -0.68436130
  H     73    1    -12.43182066     -2.49970010     -2.38651768
  H     74    1    -10.82473120     -1.98485879     -1.81909694
  H     75    1     15.58683442      0.34313404      0.89437552
  H     76    1    -15.86086366     -2.01449461      0.53173239
  H     77    1      8.93328736      0.59577326     -0.33295702
  H     78    1     -8.94504149     -0.49186658      0.37412864
  H     79    1      8.80448757     -1.89695189      2.58023525
  H     80    1      8.67646900     -2.94981333      1.16723026
  H     81    1      7.22112766     -2.55282676      2.10805028
  H     82    1     -8.68055440      3.01621516     -1.17265386
  H     83    1     -8.58894530      1.95546818     -2.58267723
  H     84    1     -7.10761258      2.68969762     -1.93176402
  H     85    1      6.72336652      0.44987009     -0.12755848
  H     86    1     -6.72032111     -0.31181474      0.32424786
  H     87    1      5.39551276     -1.79826033      1.57479597
  H     88    1     -5.32353138      1.93300264     -1.32628952
  H     89    1      4.35505674      0.54382254     -0.14092556
  H     90    1     -4.33995957     -0.37417073      0.46787553
  H     91    1      3.21383351     -2.84899433      1.30310227
  H     92    1      3.29472168     -1.78782149      2.71397111
  H     93    1      1.72154190     -2.15900901      1.97764596
  H     94    1     -3.20184165      3.00896531     -0.97760100
  H     95    1     -3.17696858      1.93131332     -2.37806460
  H     96    1     -1.65749820      2.35250547     -1.56096643
  H     97    1      2.15366265      0.79924707     -0.32330541
  H     98    1     -2.13208002     -0.61618158      0.71697109
  H     99    1      0.18248588     -1.13007848      1.12972109
  H    100    1     -0.14532397      1.31090432     -0.71781159

======= END OF MOLDEN-FORMATTED INPUT FILE =======


        *************************************************************
        *                                                           *
        *  Thank you very much for using Q-Chem.  Have a nice day.  *
        *                                                           *
        *************************************************************


